<?xml version="1.0"?>
<VTKFile type="UnstructuredGrid"  version="0.1"  >
<UnstructuredGrid>
<Piece  NumberOfPoints="4225" NumberOfCells="8192">
<Points>
<DataArray  type="Float64"  NumberOfComponents="3"  format="ascii">0 0 0  0.015625 0 0  0.03125 0 0  0.046875 0 0  0.0625 0 0  0.078125 0 0  0.09375 0 0  0.109375 0 0  0.125 0 0  0.140625 0 0  0.15625 0 0  0.171875 0 0  0.1875 0 0  0.203125 0 0  0.21875 0 0  0.234375 0 0  0.25 0 0  0.265625 0 0  0.28125 0 0  0.296875 0 0  0.3125 0 0  0.328125 0 0  0.34375 0 0  0.359375 0 0  0.375 0 0  0.390625 0 0  0.40625 0 0  0.421875 0 0  0.4375 0 0  0.453125 0 0  0.46875 0 0  0.484375 0 0  0.5 0 0  0.515625 0 0  0.53125 0 0  0.546875 0 0  0.5625 0 0  0.578125 0 0  0.59375 0 0  0.609375 0 0  0.625 0 0  0.640625 0 0  0.65625 0 0  0.671875 0 0  0.6875 0 0  0.703125 0 0  0.71875 0 0  0.734375 0 0  0.75 0 0  0.765625 0 0  0.78125 0 0  0.796875 0 0  0.8125 0 0  0.828125 0 0  0.84375 0 0  0.859375 0 0  0.875 0 0  0.890625 0 0  0.90625 0 0  0.921875 0 0  0.9375 0 0  0.953125 0 0  0.96875 0 0  0.984375 0 0  1 0 0  0 0.015625 0  0.015625 0.015625 0  0.03125 0.015625 0  0.046875 0.015625 0  0.0625 0.015625 0  0.078125 0.015625 0  0.09375 0.015625 0  0.109375 0.015625 0  0.125 0.015625 0  0.140625 0.015625 0  0.15625 0.015625 0  0.171875 0.015625 0  0.1875 0.015625 0  0.203125 0.015625 0  0.21875 0.015625 0  0.234375 0.015625 0  0.25 0.015625 0  0.265625 0.015625 0  0.28125 0.015625 0  0.296875 0.015625 0  0.3125 0.015625 0  0.328125 0.015625 0  0.34375 0.015625 0  0.359375 0.015625 0  0.375 0.015625 0  0.390625 0.015625 0  0.40625 0.015625 0  0.421875 0.015625 0  0.4375 0.015625 0  0.453125 0.015625 0  0.46875 0.015625 0  0.484375 0.015625 0  0.5 0.015625 0  0.515625 0.015625 0  0.53125 0.015625 0  0.546875 0.015625 0  0.5625 0.015625 0  0.578125 0.015625 0  0.59375 0.015625 0  0.609375 0.015625 0  0.625 0.015625 0  0.640625 0.015625 0  0.65625 0.015625 0  0.671875 0.015625 0  0.6875 0.015625 0  0.703125 0.015625 0  0.71875 0.015625 0  0.734375 0.015625 0  0.75 0.015625 0  0.765625 0.015625 0  0.78125 0.015625 0  0.796875 0.015625 0  0.8125 0.015625 0  0.828125 0.015625 0  0.84375 0.015625 0  0.859375 0.015625 0  0.875 0.015625 0  0.890625 0.015625 0  0.90625 0.015625 0  0.921875 0.015625 0  0.9375 0.015625 0  0.953125 0.015625 0  0.96875 0.015625 0  0.984375 0.015625 0  1 0.015625 0  0 0.03125 0  0.015625 0.03125 0  0.03125 0.03125 0  0.046875 0.03125 0  0.0625 0.03125 0  0.078125 0.03125 0  0.09375 0.03125 0  0.109375 0.03125 0  0.125 0.03125 0  0.140625 0.03125 0  0.15625 0.03125 0  0.171875 0.03125 0  0.1875 0.03125 0  0.203125 0.03125 0  0.21875 0.03125 0  0.234375 0.03125 0  0.25 0.03125 0  0.265625 0.03125 0  0.28125 0.03125 0  0.296875 0.03125 0  0.3125 0.03125 0  0.328125 0.03125 0  0.34375 0.03125 0  0.359375 0.03125 0  0.375 0.03125 0  0.390625 0.03125 0  0.40625 0.03125 0  0.421875 0.03125 0  0.4375 0.03125 0  0.453125 0.03125 0  0.46875 0.03125 0  0.484375 0.03125 0  0.5 0.03125 0  0.515625 0.03125 0  0.53125 0.03125 0  0.546875 0.03125 0  0.5625 0.03125 0  0.578125 0.03125 0  0.59375 0.03125 0  0.609375 0.03125 0  0.625 0.03125 0  0.640625 0.03125 0  0.65625 0.03125 0  0.671875 0.03125 0  0.6875 0.03125 0  0.703125 0.03125 0  0.71875 0.03125 0  0.734375 0.03125 0  0.75 0.03125 0  0.765625 0.03125 0  0.78125 0.03125 0  0.796875 0.03125 0  0.8125 0.03125 0  0.828125 0.03125 0  0.84375 0.03125 0  0.859375 0.03125 0  0.875 0.03125 0  0.890625 0.03125 0  0.90625 0.03125 0  0.921875 0.03125 0  0.9375 0.03125 0  0.953125 0.03125 0  0.96875 0.03125 0  0.984375 0.03125 0  1 0.03125 0  0 0.046875 0  0.015625 0.046875 0  0.03125 0.046875 0  0.046875 0.046875 0  0.0625 0.046875 0  0.078125 0.046875 0  0.09375 0.046875 0  0.109375 0.046875 0  0.125 0.046875 0  0.140625 0.046875 0  0.15625 0.046875 0  0.171875 0.046875 0  0.1875 0.046875 0  0.203125 0.046875 0  0.21875 0.046875 0  0.234375 0.046875 0  0.25 0.046875 0  0.265625 0.046875 0  0.28125 0.046875 0  0.296875 0.046875 0  0.3125 0.046875 0  0.328125 0.046875 0  0.34375 0.046875 0  0.359375 0.046875 0  0.375 0.046875 0  0.390625 0.046875 0  0.40625 0.046875 0  0.421875 0.046875 0  0.4375 0.046875 0  0.453125 0.046875 0  0.46875 0.046875 0  0.484375 0.046875 0  0.5 0.046875 0  0.515625 0.046875 0  0.53125 0.046875 0  0.546875 0.046875 0  0.5625 0.046875 0  0.578125 0.046875 0  0.59375 0.046875 0  0.609375 0.046875 0  0.625 0.046875 0  0.640625 0.046875 0  0.65625 0.046875 0  0.671875 0.046875 0  0.6875 0.046875 0  0.703125 0.046875 0  0.71875 0.046875 0  0.734375 0.046875 0  0.75 0.046875 0  0.765625 0.046875 0  0.78125 0.046875 0  0.796875 0.046875 0  0.8125 0.046875 0  0.828125 0.046875 0  0.84375 0.046875 0  0.859375 0.046875 0  0.875 0.046875 0  0.890625 0.046875 0  0.90625 0.046875 0  0.921875 0.046875 0  0.9375 0.046875 0  0.953125 0.046875 0  0.96875 0.046875 0  0.984375 0.046875 0  1 0.046875 0  0 0.0625 0  0.015625 0.0625 0  0.03125 0.0625 0  0.046875 0.0625 0  0.0625 0.0625 0  0.078125 0.0625 0  0.09375 0.0625 0  0.109375 0.0625 0  0.125 0.0625 0  0.140625 0.0625 0  0.15625 0.0625 0  0.171875 0.0625 0  0.1875 0.0625 0  0.203125 0.0625 0  0.21875 0.0625 0  0.234375 0.0625 0  0.25 0.0625 0  0.265625 0.0625 0  0.28125 0.0625 0  0.296875 0.0625 0  0.3125 0.0625 0  0.328125 0.0625 0  0.34375 0.0625 0  0.359375 0.0625 0  0.375 0.0625 0  0.390625 0.0625 0  0.40625 0.0625 0  0.421875 0.0625 0  0.4375 0.0625 0  0.453125 0.0625 0  0.46875 0.0625 0  0.484375 0.0625 0  0.5 0.0625 0  0.515625 0.0625 0  0.53125 0.0625 0  0.546875 0.0625 0  0.5625 0.0625 0  0.578125 0.0625 0  0.59375 0.0625 0  0.609375 0.0625 0  0.625 0.0625 0  0.640625 0.0625 0  0.65625 0.0625 0  0.671875 0.0625 0  0.6875 0.0625 0  0.703125 0.0625 0  0.71875 0.0625 0  0.734375 0.0625 0  0.75 0.0625 0  0.765625 0.0625 0  0.78125 0.0625 0  0.796875 0.0625 0  0.8125 0.0625 0  0.828125 0.0625 0  0.84375 0.0625 0  0.859375 0.0625 0  0.875 0.0625 0  0.890625 0.0625 0  0.90625 0.0625 0  0.921875 0.0625 0  0.9375 0.0625 0  0.953125 0.0625 0  0.96875 0.0625 0  0.984375 0.0625 0  1 0.0625 0  0 0.078125 0  0.015625 0.078125 0  0.03125 0.078125 0  0.046875 0.078125 0  0.0625 0.078125 0  0.078125 0.078125 0  0.09375 0.078125 0  0.109375 0.078125 0  0.125 0.078125 0  0.140625 0.078125 0  0.15625 0.078125 0  0.171875 0.078125 0  0.1875 0.078125 0  0.203125 0.078125 0  0.21875 0.078125 0  0.234375 0.078125 0  0.25 0.078125 0  0.265625 0.078125 0  0.28125 0.078125 0  0.296875 0.078125 0  0.3125 0.078125 0  0.328125 0.078125 0  0.34375 0.078125 0  0.359375 0.078125 0  0.375 0.078125 0  0.390625 0.078125 0  0.40625 0.078125 0  0.421875 0.078125 0  0.4375 0.078125 0  0.453125 0.078125 0  0.46875 0.078125 0  0.484375 0.078125 0  0.5 0.078125 0  0.515625 0.078125 0  0.53125 0.078125 0  0.546875 0.078125 0  0.5625 0.078125 0  0.578125 0.078125 0  0.59375 0.078125 0  0.609375 0.078125 0  0.625 0.078125 0  0.640625 0.078125 0  0.65625 0.078125 0  0.671875 0.078125 0  0.6875 0.078125 0  0.703125 0.078125 0  0.71875 0.078125 0  0.734375 0.078125 0  0.75 0.078125 0  0.765625 0.078125 0  0.78125 0.078125 0  0.796875 0.078125 0  0.8125 0.078125 0  0.828125 0.078125 0  0.84375 0.078125 0  0.859375 0.078125 0  0.875 0.078125 0  0.890625 0.078125 0  0.90625 0.078125 0  0.921875 0.078125 0  0.9375 0.078125 0  0.953125 0.078125 0  0.96875 0.078125 0  0.984375 0.078125 0  1 0.078125 0  0 0.09375 0  0.015625 0.09375 0  0.03125 0.09375 0  0.046875 0.09375 0  0.0625 0.09375 0  0.078125 0.09375 0  0.09375 0.09375 0  0.109375 0.09375 0  0.125 0.09375 0  0.140625 0.09375 0  0.15625 0.09375 0  0.171875 0.09375 0  0.1875 0.09375 0  0.203125 0.09375 0  0.21875 0.09375 0  0.234375 0.09375 0  0.25 0.09375 0  0.265625 0.09375 0  0.28125 0.09375 0  0.296875 0.09375 0  0.3125 0.09375 0  0.328125 0.09375 0  0.34375 0.09375 0  0.359375 0.09375 0  0.375 0.09375 0  0.390625 0.09375 0  0.40625 0.09375 0  0.421875 0.09375 0  0.4375 0.09375 0  0.453125 0.09375 0  0.46875 0.09375 0  0.484375 0.09375 0  0.5 0.09375 0  0.515625 0.09375 0  0.53125 0.09375 0  0.546875 0.09375 0  0.5625 0.09375 0  0.578125 0.09375 0  0.59375 0.09375 0  0.609375 0.09375 0  0.625 0.09375 0  0.640625 0.09375 0  0.65625 0.09375 0  0.671875 0.09375 0  0.6875 0.09375 0  0.703125 0.09375 0  0.71875 0.09375 0  0.734375 0.09375 0  0.75 0.09375 0  0.765625 0.09375 0  0.78125 0.09375 0  0.796875 0.09375 0  0.8125 0.09375 0  0.828125 0.09375 0  0.84375 0.09375 0  0.859375 0.09375 0  0.875 0.09375 0  0.890625 0.09375 0  0.90625 0.09375 0  0.921875 0.09375 0  0.9375 0.09375 0  0.953125 0.09375 0  0.96875 0.09375 0  0.984375 0.09375 0  1 0.09375 0  0 0.109375 0  0.015625 0.109375 0  0.03125 0.109375 0  0.046875 0.109375 0  0.0625 0.109375 0  0.078125 0.109375 0  0.09375 0.109375 0  0.109375 0.109375 0  0.125 0.109375 0  0.140625 0.109375 0  0.15625 0.109375 0  0.171875 0.109375 0  0.1875 0.109375 0  0.203125 0.109375 0  0.21875 0.109375 0  0.234375 0.109375 0  0.25 0.109375 0  0.265625 0.109375 0  0.28125 0.109375 0  0.296875 0.109375 0  0.3125 0.109375 0  0.328125 0.109375 0  0.34375 0.109375 0  0.359375 0.109375 0  0.375 0.109375 0  0.390625 0.109375 0  0.40625 0.109375 0  0.421875 0.109375 0  0.4375 0.109375 0  0.453125 0.109375 0  0.46875 0.109375 0  0.484375 0.109375 0  0.5 0.109375 0  0.515625 0.109375 0  0.53125 0.109375 0  0.546875 0.109375 0  0.5625 0.109375 0  0.578125 0.109375 0  0.59375 0.109375 0  0.609375 0.109375 0  0.625 0.109375 0  0.640625 0.109375 0  0.65625 0.109375 0  0.671875 0.109375 0  0.6875 0.109375 0  0.703125 0.109375 0  0.71875 0.109375 0  0.734375 0.109375 0  0.75 0.109375 0  0.765625 0.109375 0  0.78125 0.109375 0  0.796875 0.109375 0  0.8125 0.109375 0  0.828125 0.109375 0  0.84375 0.109375 0  0.859375 0.109375 0  0.875 0.109375 0  0.890625 0.109375 0  0.90625 0.109375 0  0.921875 0.109375 0  0.9375 0.109375 0  0.953125 0.109375 0  0.96875 0.109375 0  0.984375 0.109375 0  1 0.109375 0  0 0.125 0  0.015625 0.125 0  0.03125 0.125 0  0.046875 0.125 0  0.0625 0.125 0  0.078125 0.125 0  0.09375 0.125 0  0.109375 0.125 0  0.125 0.12
[...]
<PointData  Scalars="f_12"> 
<DataArray  type="Float64"  Name="f_12"  format="ascii">6.3201880840524616e-01  6.3201880857771364e-01  6.3201880909473596e-01  6.3201880995506010e-01  6.3201881115661263e-01  6.3201881269649907e-01  6.3201881457100917e-01  6.3201881677562743e-01  6.3201881930504245e-01  6.3201882215316096e-01  6.3201882531312126e-01  6.3201882877731108e-01  6.3201883253738478e-01  6.3201883658428404e-01  6.3201884090825933e-01  6.3201884549889420e-01  6.3201885034512939e-01  6.3201885543529002e-01  6.3201886075711311e-01  6.3201886629777826e-01  6.3201887204393736e-01  6.3201887798174772e-01  6.3201888409690465e-01  6.3201889037467596e-01  6.3201889679993817e-01  6.3201890335721245e-01  6.3201891003070143e-01  6.3201891680432831e-01  6.3201892366177481e-01  6.3201893058652103e-01  6.3201893756188432e-01  6.3201894457106045e-01  6.3201895159716404e-01  6.3201895862326829e-01  6.3201896563244664e-01  6.3201897260781370e-01  6.3201897953256492e-01  6.3201898639001808e-01  6.3201899316365295e-01  6.3201899983715115e-01  6.3201900639443576e-01  6.3201901281970962e-01  6.3201901909749370e-01  6.3201902521266429e-01  6.3201903115048919e-01  6.3201903689666383e-01  6.3201904243734508e-01  6.3201904775918483e-01  6.3201905284936244e-01  6.3201905769561495e-01  6.3201906228626759e-01  6.3201906661026075e-01  6.3201907065717766e-01  6.3201907441726901e-01  6.3201907788147615e-01  6.3201908104145377e-01  6.3201908388958883e-01  6.3201908641901994e-01  6.3201908862365364e-01  6.3201909049817850e-01  6.3201909203807882e-01  6.3201909323964434e-01  6.3201909409998014e-01  6.3201909461701278e-01  6.3201909478948504e-01  6.3201880769962260e-01  6.3201880787208653e-01  6.3201880838912183e-01  6.3201880924946297e-01  6.3201881045103692e-01  6.3201881199094900e-01  6.3201881386548941e-01  6.3201881607014243e-01  6.3201881859959641e-01  6.3201882144775801e-01  6.3201882460776559e-01  6.3201882807200671e-01  6.3201883183213536e-01  6.3201883587909347e-01  6.3201884020313137e-01  6.3201884479383208e-01  6.3201884964013644e-01  6.3201885473036912e-01  6.3201886005226748e-01  6.3201886559301057e-01  6.3201887133925039e-01  6.3201887727714356e-01  6.3201888339238554e-01  6.3201888967024400e-01  6.3201889609559503e-01  6.3201890265295957e-01  6.3201890932654037e-01  6.3201891610026018e-01  6.3201892295780038e-01  6.3201892988264086e-01  6.3201893685809896e-01  6.3201894386737023e-01  6.3201895089356863e-01  6.3201895791976770e-01  6.3201896492904042e-01  6.3201897190450096e-01  6.3201897882934477e-01  6.3201898568688930e-01  6.3201899246061433e-01  6.3201899913420112e-01  6.3201900569157243e-01  6.3201901211693101e-01  6.3201901839479757e-01  6.3201902451004799e-01  6.3201903044795049e-01  6.3201903619419975e-01  6.3201904173495260e-01  6.3201904705686085e-01  6.3201905214710363e-01  6.3201905699341787e-01  6.3201906158412868e-01  6.3201906590817614e-01  6.3201906995514356e-01  6.3201907371528132e-01  6.3201907717953076e-01  6.3201908033954635e-01  6.3201908318771527e-01  6.3201908571717580e-01  6.3201908792183437e-01  6.3201908979637977e-01  6.3201909133629575e-01  6.3201909253787247e-01  6.3201909339821527e-01  6.3201909391525102e-01  6.3201909408771506e-01  6.3201880558443457e-01  6.3201880575688507e-01  6.3201880627394225e-01  6.3201880713431846e-01  6.3201880833594137e-01  6.3201880987591597e-01  6.3201881175053243e-01  6.3201881395527459e-01  6.3201881648483094e-01  6.3201881933310777e-01  6.3201882249324326e-01  6.3201882595762460e-01  6.3201882971790557e-01  6.3201883376502732e-01  6.3201883808924020e-01  6.3201884268012676e-01  6.3201884752662718e-01  6.3201885261706603e-01  6.3201885793917978e-01  6.3201886348014702e-01  6.3201886922661943e-01  6.3201887516475297e-01  6.3201888128024242e-01  6.3201888755835489e-01  6.3201889398396605e-01  6.3201890054159593e-01  6.3201890721544685e-01  6.3201891398944077e-01  6.3201892084725853e-01  6.3201892777237934e-01  6.3201893474811977e-01  6.3201894175767459e-01  6.3201894878415743e-01  6.3201895581064083e-01  6.3201896282019732e-01  6.3201896979594019e-01  6.3201897672106422e-01  6.3201898357888631e-01  6.3201899035288545e-01  6.3201899702674236e-01  6.3201900358437912e-01  6.3201901000999783e-01  6.3201901628811841e-01  6.3201902240361640e-01  6.3201902834175916e-01  6.3201903408824101e-01  6.3201903962921813e-01  6.3201904495134176e-01  6.3201905004179049e-01  6.3201905488830101e-01  6.3201905947919756e-01  6.3201906380342010e-01  6.3201906785055140e-01  6.3201907161084137e-01  6.3201907507523114e-01  6.3201907823537451e-01  6.3201908108365867e-01  6.3201908361322179e-01  6.3201908581796962e-01  6.3201908769259085e-01  6.3201908923256944e-01  6.3201909043419524e-01  6.3201909129457334e-01  6.3201909181163163e-01  6.3201909198408279e-01  6.3201880206477024e-01  6.3201880223721141e-01  6.3201880275430389e-01  6.3201880361473839e-01  6.3201880481644246e-01  6.3201880635652086e-01  6.3201880823126355e-01  6.3201881043615427e-01  6.3201881296588114e-01  6.3201881581434982e-01  6.3201881897469814e-01  6.3201882243931273e-01  6.3201882619984695e-01  6.3201883024724126e-01  6.3201883457174535e-01  6.3201883916294110e-01  6.3201884400976782e-01  6.3201884910054951e-01  6.3201885442302153e-01  6.3201885996436202e-01  6.3201886571122134e-01  6.3201887164975490e-01  6.3201887776565613e-01  6.3201888404419138e-01  6.3201889047023518e-01  6.3201889702830683e-01  6.3201890370260705e-01  6.3201891047705727e-01  6.3201891733533688e-01  6.3201892426092399e-01  6.3201893123713404e-01  6.3201893824716115e-01  6.3201894527411717e-01  6.3201895230107363e-01  6.3201895931110219e-01  6.3201896628731480e-01  6.3201897321290523e-01  6.3201898007118928e-01  6.3201898684564461e-01  6.3201899351995106e-01  6.3201900007802925e-01  6.3201900650408072e-01  6.3201901278262407e-01  6.3201901889853396e-01  6.3201902483707662e-01  6.3201903058394548e-01  6.3201903612529575e-01  6.3201904144777787e-01  6.3201904653856944e-01  6.3201905138540637e-01  6.3201905597661212e-01  6.3201906030112587e-01  6.3201906434852972e-01  6.3201906810907293e-01  6.3201907157369597e-01  6.3201907473405239e-01  6.3201907758252840e-01  6.3201908011226182e-01  6.3201908231715831e-01  6.3201908419190600e-01  6.3201908573198839e-01  6.3201908693369546e-01  6.3201908779413207e-01  6.3201908831122577e-01  6.3201908848366806e-01  6.3201879714910847e-01  6.3201879732154509e-01  6.3201879783868620e-01  6.3201879869920197e-01  6.3201879990101917e-01  6.3201880144124245e-01  6.3201880331616167e-01  6.3201880552125977e-01  6.3201880805122457e-01  6.3201881089996126e-01  6.3201881406060689e-01  6.3201881752554712e-01  6.3201882128643505e-01  6.3201882533421005e-01  6.3201882965912071e-01  6.3201883425074834e-01  6.3201883909803092e-01  6.3201884418929133e-01  6.3201884951226395e-01  6.3201885505412558e-01  6.3201886080152536e-01  6.3201886674061747e-01  6.3201887285709379e-01  6.3201887913621957e-01  6.3201888556286789e-01  6.3201889212155615e-01  6.3201889879648410e-01  6.3201890557157137e-01  6.3201891243049602e-01  6.3201891935673438e-01  6.3201892633360068e-01  6.3201893334428694e-01  6.3201894037190387e-01  6.3201894739952125e-01  6.3201895441020906e-01  6.3201896138707780e-01  6.3201896831331972e-01  6.3201897517224870e-01  6.3201898194734119e-01  6.3201898862227524e-01  6.3201899518097027e-01  6.3201900160762603e-01  6.3201900788675991e-01  6.3201901400324512e-01  6.3201901994234622e-01  6.3201902568975554e-01  6.3201903123162706e-01  6.3201903655460978e-01  6.3201904164588019e-01  6.3201904649317286e-01  6.3201905108481049e-01  6.3201905540973102e-01  6.3201905945751558e-01  6.3201906321841239e-01  6.3201906668336139e-01  6.3201906984401512e-01  6.3201907269275903e-01  6.3201907522273049e-01  6.3201907742783447e-01  6.3201907930275858e-01  6.3201908084298608e-01  6.3201908204480639e-01  6.3201908290532438e-01  6.3201908342246704e-01  6.3201908359490477e-01  6.3201879084929169e-01  6.3201879102172820e-01  6.3201879153893192e-01  6.3201879239955150e-01  6.3201879360151358e-01  6.3201879514192272e-01  6.3201879701706787e-01  6.3201879922243176e-01  6.3201880175270164e-01  6.3201880460178150e-01  6.3201880776280817e-01  6.3201881122816606e-01  6.3201881498950718e-01  6.3201881903777002e-01  6.3201882336320203e-01  6.3201882795538300e-01  6.3201883280324977e-01  6.3201883789512359e-01  6.3201884321873791e-01  6.3201884876126735e-01  6.3201885450935968e-01  6.3201886044916755e-01  6.3201886656638118e-01  6.3201887284626357e-01  6.3201887927368627e-01  6.3201888583316501e-01  6.3201889250889753e-01  6.3201889928480126e-01  6.3201890614455247e-01  6.3201891307162561e-01  6.3201892004933269e-01  6.3201892706086393e-01  6.3201893408932774e-01  6.3201894111779222e-01  6.3201894812932480e-01  6.3201895510703454e-01  6.3201896203411101e-01  6.3201896889386666e-01  6.3201897566977583e-01  6.3201898234551424e-01  6.3201898890499986e-01  6.3201899533243011e-01  6.3201900161232083e-01  6.3201900772954311e-01  6.3201901366936009e-01  6.3201901941746208e-01  6.3201902496000151e-01  6.3201903028362583e-01  6.3201903537550985e-01  6.3201904022338684e-01  6.3201904481557780e-01  6.3201904914101970e-01  6.3201905318929208e-01  6.3201905695064220e-01  6.3201906041600875e-01  6.3201906357704352e-01  6.3201906642613093e-01  6.3201906895640736e-01  6.3201907116177702e-01  6.3201907303692739e-01  6.3201907457734063e-01  6.3201907577930605e-01  6.3201907663992796e-01  6.3201907715713312e-01  6.3201907732957130e-01  6.3201878318049687e-01  6.3201878335293826e-01  6.3201878387021793e-01  6.3201878473096373e-01  6.3201878593310223e-01  6.3201878747373741e-01  6.3201878934915778e-01  6.3201879155484531e-01  6.3201879408548622e-01  6.3201879693498419e-01  6.3201880009647438e-01  6.3201880356234075e-01  6.3201880732423366e-01  6.3201881137309024e-01  6.3201881569915674e-01  6.3201882029201129e-01  6.3201882514058916e-01  6.3201883023321004e-01  6.3201883555760507e-01  6.3201884110094753e-01  6.3201884684988319e-01  6.3201885279056225e-01  6.3201885890867315e-01  6.3201886518947692e-01  6.3201887161784243e-01  6.3201887817828328e-01  6.3201888485499502e-01  6.3201889163189273e-01  6.3201889849265025e-01  6.3201890542073946e-01  6.3201891239947017e-01  6.3201891941202992e-01  6.3201892644152469e-01  6.3201893347102001e-01  6.3201894048358120e-01  6.3201894746231446e-01  6.3201895439040723e-01  6.3201896125116919e-01  6.3201896802807211e-01  6.3201897470478996e-01  6.3201898126523781e-01  6.3201898769361098e-01  6.3201899397442274e-01  6.3201900009254253e-01  6.3201900603323080e-01  6.3201901178217601e-01  6.3201901732552856e-01  6.3201902264993370e-01  6.3201902774256480e-01  6.3201903259115300e-01  6.3201903718401753e-01  6.3201904151009392e-01  6.3201904555896027e-01  6.3201904932086217e-01  6.3201905278673731e-01  6.3201905594823571e-01  6.3201905879774112e-01  6.3201906132838881e-01  6.3201906353408221e-01  6.3201906540950759e-01  6.3201906695014709e-01  6.3201906815228892e-01  6.3201906901303717e-01  6.3201906953031839e-01  6.3201906970276156e-01  6.3201877416119945e-01  6.3201877433365039e-01  6.3201877485101932e-01  6.3201877571191378e-01  6.3201877691425967e-01  6.3201877845516075e-01  6.3201878033090453e-01  6.3201878253697252e-01  6.3201878506804998e-01  6.3201878791803945e-01  6.3201879108007519e-01  6.3201879454653920e-01  6.3201879830908103e-01  6.3201880235863617e-01  6.3201880668544885e-01  6.3201881127909565e-01  6.3201881612850985e-01  6.3201882122200925e-01  6.3201882654732267e-01  6.3201883209162135e-01  6.3201883784154866e-01  6.3201884378325235e-01  6.3201884990241863e-01  6.3201885618430576e-01  6.3201886261378015e-01  6.3201886917535266e-01  6.3201887585321614e-01  6.3201888263128281e-01  6.3201888949322371e-01  6.3201889642250808e-01  6.3201890340244260e-01  6.3201891041621183e-01  6.3201891744691929e-01  6.3201892447762720e-01  6.3201893149139809e-01  6.3201893847133517e-01  6.3201894540062298e-01  6.3201895226256832e-01  6.3201895904064032e-01  6.3201896571850980e-01  6.3201897228008941e-01  6.3201897870957136e-01  6.3201898499146680e-01  6.3201899111064197e-01  6.3201899705235498e-01  6.3201900280229206e-01  6.3201900834660063e-01  6.3201901367192426e-01  6.3201901876543387e-01  6.3201902361485851e-01  6.3201902820851541e-01  6.3201903253533820e-01  6.3201903658490277e-01  6.3201904034745382e-01  6.3201904381392682e-01  6.3201904697597067e-01  6.3201904982596768e-01  6.3201905235705191e-01  6.3201905456312601e-01  6.3201905643887513e-01  6.3201905797978031e-01  6.3201905918212975e-01  6.3201906004302666e-01  6.3201906056039692e-01  6.3201906073285008e-01  6.3201876381312816e-01  6.3201876398559331e-01  6.3201876450306471e-01  6.3201876536412960e-01  6.3201876656671352e-01  6.3201876810791935e-01  6.3201876998403450e-01  6.3201877219053904e-01  6.3201877472211743e-01  6.3201877757267089e-01  6.3201878073533202e-01  6.3201878420248225e-01  6.3201878796576849e-01  6.3201879201612488e-01  6.3201879634379377e-01  6.3201880093834950e-01  6.3201880578872327e-01  6.3201881088323042e-01  6.3201881620959766e-01  6.3201882175499347e-01  6.3201882750605853e-01  6.3201883344893806e-01  6.3201883956931504e-01  6.3201884585244505e-01  6.3201885228319166e-01  6.3201885884606268e-01  6.3201886552524744e-01  6.3201887230465525e-01  6.3201887916795407e-01  6.3201888609860957e-01  6.3201889307992520e-01  6.3201890009508244e-01  6.3201890712718101e-01  6.3201891415928013e-01  6.3201892117443892e-01  6.3201892815575700e-01  6.3201893508641593e-01  6.3201894194971919e-01  6.3201894872913245e-01  6.3201895540832331e-01  6.3201896197120133e-01  6.3201896840195571e-01  6.3201897468509405e-01  6.3201898080548002e-01  6.3201898674836898e-01  6.3201899249944371e-01  6.3201899804484962e-01  6.3201900337122718e-01  6.3201900846574455e-01  6.3201901331612875e-01  6.3201901791069470e-01  6.3201902223837358e-01  6.3201902628873974e-01  6.3201903005203530e-01  6.3201903351919431e-01  6.3201903668186388e-01  6.3201903953242489e-01  6.3201904206401016e-01  6.3201904427052080e-01  6.3201904614664117e-01  6.3201904768785144e-01  6.3201904889043892e-01  6.3201904975150613e-01  6.3201905026897898e-01  6.3201905044144668e-01  6.3201875216121317e-01  6.3201875233369742e-01  6.3201875285128406e-01  6.3201875371254068e-01  6.3201875491539250e-01  6.3201875645694183e-01  6.3201875833347487e-01  6.3201876054047101e-01  6.3201876307261329e-01  6.3201876592380168e-01  6.3201876908716748e-01  6.3201877255508998e-01  6.3201877631921455e-01  6.3201878037047321e-01  6.3201878469910611e-01  6.3201878929468536e-01  6.3201879414613960e-01  6.3201879924178150e-01  6.3201880456933535e-01  6.3201881011596639e-01  6.3201881586831254e-01  6.3201882181251579e-01  6.3201882793425623e-01  6.3201883421878591e-01  6.3201884065096503e-01  6.3201884721529789e-01  6.3201885389597057e-01  6.3201886067688873e-01  6.3201886754171632e-01  6.3201887447391569e-01  6.3201888145678642e-01  6.3201888847350640e-01  6.3201889550717150e-01  6.3201890254083726e-01  6.3201890955755868e-01  6.3201891654043196e-01  6.3201892347263489e-01  6.3201893033746703e-01  6.3201893711839052e-01  6.3201894379906931e-01  6.3201895036340927e-01  6.3201895679559628e-01  6.3201896308013439e-01  6.3201896920188372e-01  6.3201897514609651e-01  6.3201898089845243e-01  6.3201898644509369e-01  6.3201899177265786e-01  6.3201899686831020e-01  6.3201900171977476e-01  6.3201900631536445e-01  6.3201901064400745e-01  6.3201901469527577e-01  6.3201901845940989e-01  6.3201902192734127e-01  6.3201902509071550e-01  6.3201902794191167e-01  6.3201903047406083e-01  6.3201903268106308e-01  6.3201903455760144e-01  6.3201903609915522e-01  6.3201903730201048e-01  6.3201903816326976e-01  6.3201903868085785e-01  6.3201903885334465e-01  6.3201873923352558e-01  6.3201873940603348e-01  6.3201873992374802e-01  6.3201874078521747e-01  6.3201874198836661e-01  6.3201874353029686e-01  6.3201874540729364e-01  6.3201874761483501e-01  6.3201875014760300e-01  6.3201875299949595e-01  6.3201875616364345e-01  6.3201875963242293e-01  6.3201876339747742e-01  6.3201876744973717e-01  6.3201877177943966e-01  6.3201877637615433e-01  6.3201878122880739e-01  6.3201878632570851e-01  6.3201879165457864e-01  6.3201879720258025e-01  6.3201880295634771e-01  6.3201880890201978e-01  6.3201881502527291e-01  6.3201882131135545e-01  6.3201882774512397e-01  6.3201883431107897e-01  6.3201884099340233e-01  6.3201884777599593e-01  6.3201885464251983e-01  6.3201886157643206e-01  6.3201886856102840e-01  6.3201887557948211e-01  6.3201888261488526e-01  6.3201888965028896e-01  6.3201889666874422e-01  6.3201890365334312e-01  6.3201891058725890e-01  6.3201891745378735e-01  6.3201892423638639e-01  6.3201893091871608e-01  6.3201893748467808e-01  6.3201894391845437e-01  6.3201895020454557e-01  6.3201895632780769e-01  6.3201896227348930e-01  6.3201896802726665e-01  6.3201897357527848e-01  6.3201897890415903e-01  6.3201898400107059e-01  6.3201898885373420e-01  6.3201899345045942e-01  6.3201899778017212e-01  6.3201900183244164e-01  6.3201900559750579e-01  6.3201900906629427e-01  6.3201901223045021e-01  6.3201901508235092e-01  6.3201901761512591e-01  6.3201901982267361e-01  6.3201902169967572e-01  6.3201902324161041e-01  6.3201902444476310e-01  6.3201902530623510e-01  6.3201902582395120e-01  6.3201902599646187e-01  6.3201872506121026e-01  6.3201872523374636e-01  6.3201872575160101e-01  6.3201872661330383e-01  6.3201872781677881e-01  6.3201872935912662e-01  6.3201873123663166e-01  6.3201873344477100e-01  6.3201873597822500e-01  6.3201873883089021e-01  6.3201874199589470e-01  6.3201874546561343e-01  6.3201874923168777e-01  6.3201875328504487e-01  6.3201875761591986e-01  6.3201876221387943e-01  6.3201876706784665e-01  6.3201877216612801e-01  6.3201877749644142e-01  6.3201878304594539e-01  6.3201878880127116e-01  6.3201879474855338e-01  6.3201880087346474e-01  6.3201880716124970e-01  6.3201881359676049e-01  6.3201882016449373e-01  6.3201882684862665e-01  6.3201883363305722e-01  6.3201884050144064e-01  6.3201884743723091e-01  6.3201885442371863e-01  6.3201886144407315e-01  6.3201886848138156e-01  6.3201887551869063e-01  6.3201888253904670e-01  6.3201888952553709e-01  6.3201889646133091e-01  6.3201890332971900e-01  6.3201891011415479e-01  6.3201891679829425e-01  6.3201892336603449e-01  6.3201892980155328e-01  6.3201893608934689e-01  6.3201894221426735e-01  6.3201894816155912e-01  6.3201895391689500e-01  6.3201895946640929e-01  6.3201896479673314e-01  6.3201896989502515e-01  6.3201897474900293e-01  6.3201897934697304e-01  6.3201898367785836e-01  6.3201898773122545e-01  6.3201899149730933e-01  6.3201899496703728e-01  6.3201899813205020e-01  6.3201900098472341e-01  6.3201900351818452e-01  6.3201900572633007e-01  6.3201900760384067e-01  6.3201900914619291e-01  6.3201901034967145e-01  6.3201901121137682e-01  6.3201901172923325e-01  6.3201901190177234e-01  6.3201870967841012e-01  6.3201870985097885e-01  6.3201871036898594e-01  6.3201871123094200e-01  6.3201871243477059e-01  6.3201871397757170e-01  6.3201871585562852e-01  6.3201871806441678e-01  6.3201872059861519e-01  6.3201872345211885e-01  6.3201872661805325e-01  6.3201873008879161e-01  6.3201873385597274e-01  6.3201873791052099e-01  6.3201874224266874e-01  6.3201874684197956e-01  6.3201875169737309e-01  6.3201875679715280e-01  6.3201876212903241e-01  6.3201876768016740e-01  6.3201877343718427e-01  6.3201877938621420e-01  6.3201878551292545e-01  6.3201879180255816e-01  6.3201879823996032e-01  6.3201880480962336e-01  6.3201881149572070e-01  6.3201881828214501e-01  6.3201882515254693e-01  6.3201883209037535e-01  6.3201883907891621e-01  6.3201884610133374e-01  6.3201885314071038e-01  6.3201886018008746e-01  6.3201886720250655e-01  6.3201887419105007e-01  6.3201888112888216e-01  6.3201888799928863e-01  6.3201889478571838e-01  6.3201890147182216e-01  6.3201890804149252e-01  6.3201891447890257e-01  6.3201892076854405e-01  6.3201892689526451e-01  6.3201893284430410e-01  6.3201893860133118e-01  6.3201894415247650e-01  6.3201894948436677e-01  6.3201895458415713e-01  6.3201895943956155e