<?xml version="1.0"?>
<VTKFile type="UnstructuredGrid"  version="0.1"  >
<UnstructuredGrid>
<Piece  NumberOfPoints="4225" NumberOfCells="8192">
<Points>
<DataArray  type="Float64"  NumberOfComponents="3"  format="ascii">0 0 0  0.015625 0 0  0.03125 0 0  0.046875 0 0  0.0625 0 0  0.078125 0 0  0.09375 0 0  0.109375 0 0  0.125 0 0  0.140625 0 0  0.15625 0 0  0.171875 0 0  0.1875 0 0  0.203125 0 0  0.21875 0 0  0.234375 0 0  0.25 0 0  0.265625 0 0  0.28125 0 0  0.296875 0 0  0.3125 0 0  0.328125 0 0  0.34375 0 0  0.359375 0 0  0.375 0 0  0.390625 0 0  0.40625 0 0  0.421875 0 0  0.4375 0 0  0.453125 0 0  0.46875 0 0  0.484375 0 0  0.5 0 0  0.515625 0 0  0.53125 0 0  0.546875 0 0  0.5625 0 0  0.578125 0 0  0.59375 0 0  0.609375 0 0  0.625 0 0  0.640625 0 0  0.65625 0 0  0.671875 0 0  0.6875 0 0  0.703125 0 0  0.71875 0 0  0.734375 0 0  0.75 0 0  0.765625 0 0  0.78125 0 0  0.796875 0 0  0.8125 0 0  0.828125 0 0  0.84375 0 0  0.859375 0 0  0.875 0 0  0.890625 0 0  0.90625 0 0  0.921875 0 0  0.9375 0 0  0.953125 0 0  0.96875 0 0  0.984375 0 0  1 0 0  0 0.015625 0  0.015625 0.015625 0  0.03125 0.015625 0  0.046875 0.015625 0  0.0625 0.015625 0  0.078125 0.015625 0  0.09375 0.015625 0  0.109375 0.015625 0  0.125 0.015625 0  0.140625 0.015625 0  0.15625 0.015625 0  0.171875 0.015625 0  0.1875 0.015625 0  0.203125 0.015625 0  0.21875 0.015625 0  0.234375 0.015625 0  0.25 0.015625 0  0.265625 0.015625 0  0.28125 0.015625 0  0.296875 0.015625 0  0.3125 0.015625 0  0.328125 0.015625 0  0.34375 0.015625 0  0.359375 0.015625 0  0.375 0.015625 0  0.390625 0.015625 0  0.40625 0.015625 0  0.421875 0.015625 0  0.4375 0.015625 0  0.453125 0.015625 0  0.46875 0.015625 0  0.484375 0.015625 0  0.5 0.015625 0  0.515625 0.015625 0  0.53125 0.015625 0  0.546875 0.015625 0  0.5625 0.015625 0  0.578125 0.015625 0  0.59375 0.015625 0  0.609375 0.015625 0  0.625 0.015625 0  0.640625 0.015625 0  0.65625 0.015625 0  0.671875 0.015625 0  0.6875 0.015625 0  0.703125 0.015625 0  0.71875 0.015625 0  0.734375 0.015625 0  0.75 0.015625 0  0.765625 0.015625 0  0.78125 0.015625 0  0.796875 0.015625 0  0.8125 0.015625 0  0.828125 0.015625 0  0.84375 0.015625 0  0.859375 0.015625 0  0.875 0.015625 0  0.890625 0.015625 0  0.90625 0.015625 0  0.921875 0.015625 0  0.9375 0.015625 0  0.953125 0.015625 0  0.96875 0.015625 0  0.984375 0.015625 0  1 0.015625 0  0 0.03125 0  0.015625 0.03125 0  0.03125 0.03125 0  0.046875 0.03125 0  0.0625 0.03125 0  0.078125 0.03125 0  0.09375 0.03125 0  0.109375 0.03125 0  0.125 0.03125 0  0.140625 0.03125 0  0.15625 0.03125 0  0.171875 0.03125 0  0.1875 0.03125 0  0.203125 0.03125 0  0.21875 0.03125 0  0.234375 0.03125 0  0.25 0.03125 0  0.265625 0.03125 0  0.28125 0.03125 0  0.296875 0.03125 0  0.3125 0.03125 0  0.328125 0.03125 0  0.34375 0.03125 0  0.359375 0.03125 0  0.375 0.03125 0  0.390625 0.03125 0  0.40625 0.03125 0  0.421875 0.03125 0  0.4375 0.03125 0  0.453125 0.03125 0  0.46875 0.03125 0  0.484375 0.03125 0  0.5 0.03125 0  0.515625 0.03125 0  0.53125 0.03125 0  0.546875 0.03125 0  0.5625 0.03125 0  0.578125 0.03125 0  0.59375 0.03125 0  0.609375 0.03125 0  0.625 0.03125 0  0.640625 0.03125 0  0.65625 0.03125 0  0.671875 0.03125 0  0.6875 0.03125 0  0.703125 0.03125 0  0.71875 0.03125 0  0.734375 0.03125 0  0.75 0.03125 0  0.765625 0.03125 0  0.78125 0.03125 0  0.796875 0.03125 0  0.8125 0.03125 0  0.828125 0.03125 0  0.84375 0.03125 0  0.859375 0.03125 0  0.875 0.03125 0  0.890625 0.03125 0  0.90625 0.03125 0  0.921875 0.03125 0  0.9375 0.03125 0  0.953125 0.03125 0  0.96875 0.03125 0  0.984375 0.03125 0  1 0.03125 0  0 0.046875 0  0.015625 0.046875 0  0.03125 0.046875 0  0.046875 0.046875 0  0.0625 0.046875 0  0.078125 0.046875 0  0.09375 0.046875 0  0.109375 0.046875 0  0.125 0.046875 0  0.140625 0.046875 0  0.15625 0.046875 0  0.171875 0.046875 0  0.1875 0.046875 0  0.203125 0.046875 0  0.21875 0.046875 0  0.234375 0.046875 0  0.25 0.046875 0  0.265625 0.046875 0  0.28125 0.046875 0  0.296875 0.046875 0  0.3125 0.046875 0  0.328125 0.046875 0  0.34375 0.046875 0  0.359375 0.046875 0  0.375 0.046875 0  0.390625 0.046875 0  0.40625 0.046875 0  0.421875 0.046875 0  0.4375 0.046875 0  0.453125 0.046875 0  0.46875 0.046875 0  0.484375 0.046875 0  0.5 0.046875 0  0.515625 0.046875 0  0.53125 0.046875 0  0.546875 0.046875 0  0.5625 0.046875 0  0.578125 0.046875 0  0.59375 0.046875 0  0.609375 0.046875 0  0.625 0.046875 0  0.640625 0.046875 0  0.65625 0.046875 0  0.671875 0.046875 0  0.6875 0.046875 0  0.703125 0.046875 0  0.71875 0.046875 0  0.734375 0.046875 0  0.75 0.046875 0  0.765625 0.046875 0  0.78125 0.046875 0  0.796875 0.046875 0  0.8125 0.046875 0  0.828125 0.046875 0  0.84375 0.046875 0  0.859375 0.046875 0  0.875 0.046875 0  0.890625 0.046875 0  0.90625 0.046875 0  0.921875 0.046875 0  0.9375 0.046875 0  0.953125 0.046875 0  0.96875 0.046875 0  0.984375 0.046875 0  1 0.046875 0  0 0.0625 0  0.015625 0.0625 0  0.03125 0.0625 0  0.046875 0.0625 0  0.0625 0.0625 0  0.078125 0.0625 0  0.09375 0.0625 0  0.109375 0.0625 0  0.125 0.0625 0  0.140625 0.0625 0  0.15625 0.0625 0  0.171875 0.0625 0  0.1875 0.0625 0  0.203125 0.0625 0  0.21875 0.0625 0  0.234375 0.0625 0  0.25 0.0625 0  0.265625 0.0625 0  0.28125 0.0625 0  0.296875 0.0625 0  0.3125 0.0625 0  0.328125 0.0625 0  0.34375 0.0625 0  0.359375 0.0625 0  0.375 0.0625 0  0.390625 0.0625 0  0.40625 0.0625 0  0.421875 0.0625 0  0.4375 0.0625 0  0.453125 0.0625 0  0.46875 0.0625 0  0.484375 0.0625 0  0.5 0.0625 0  0.515625 0.0625 0  0.53125 0.0625 0  0.546875 0.0625 0  0.5625 0.0625 0  0.578125 0.0625 0  0.59375 0.0625 0  0.609375 0.0625 0  0.625 0.0625 0  0.640625 0.0625 0  0.65625 0.0625 0  0.671875 0.0625 0  0.6875 0.0625 0  0.703125 0.0625 0  0.71875 0.0625 0  0.734375 0.0625 0  0.75 0.0625 0  0.765625 0.0625 0  0.78125 0.0625 0  0.796875 0.0625 0  0.8125 0.0625 0  0.828125 0.0625 0  0.84375 0.0625 0  0.859375 0.0625 0  0.875 0.0625 0  0.890625 0.0625 0  0.90625 0.0625 0  0.921875 0.0625 0  0.9375 0.0625 0  0.953125 0.0625 0  0.96875 0.0625 0  0.984375 0.0625 0  1 0.0625 0  0 0.078125 0  0.015625 0.078125 0  0.03125 0.078125 0  0.046875 0.078125 0  0.0625 0.078125 0  0.078125 0.078125 0  0.09375 0.078125 0  0.109375 0.078125 0  0.125 0.078125 0  0.140625 0.078125 0  0.15625 0.078125 0  0.171875 0.078125 0  0.1875 0.078125 0  0.203125 0.078125 0  0.21875 0.078125 0  0.234375 0.078125 0  0.25 0.078125 0  0.265625 0.078125 0  0.28125 0.078125 0  0.296875 0.078125 0  0.3125 0.078125 0  0.328125 0.078125 0  0.34375 0.078125 0  0.359375 0.078125 0  0.375 0.078125 0  0.390625 0.078125 0  0.40625 0.078125 0  0.421875 0.078125 0  0.4375 0.078125 0  0.453125 0.078125 0  0.46875 0.078125 0  0.484375 0.078125 0  0.5 0.078125 0  0.515625 0.078125 0  0.53125 0.078125 0  0.546875 0.078125 0  0.5625 0.078125 0  0.578125 0.078125 0  0.59375 0.078125 0  0.609375 0.078125 0  0.625 0.078125 0  0.640625 0.078125 0  0.65625 0.078125 0  0.671875 0.078125 0  0.6875 0.078125 0  0.703125 0.078125 0  0.71875 0.078125 0  0.734375 0.078125 0  0.75 0.078125 0  0.765625 0.078125 0  0.78125 0.078125 0  0.796875 0.078125 0  0.8125 0.078125 0  0.828125 0.078125 0  0.84375 0.078125 0  0.859375 0.078125 0  0.875 0.078125 0  0.890625 0.078125 0  0.90625 0.078125 0  0.921875 0.078125 0  0.9375 0.078125 0  0.953125 0.078125 0  0.96875 0.078125 0  0.984375 0.078125 0  1 0.078125 0  0 0.09375 0  0.015625 0.09375 0  0.03125 0.09375 0  0.046875 0.09375 0  0.0625 0.09375 0  0.078125 0.09375 0  0.09375 0.09375 0  0.109375 0.09375 0  0.125 0.09375 0  0.140625 0.09375 0  0.15625 0.09375 0  0.171875 0.09375 0  0.1875 0.09375 0  0.203125 0.09375 0  0.21875 0.09375 0  0.234375 0.09375 0  0.25 0.09375 0  0.265625 0.09375 0  0.28125 0.09375 0  0.296875 0.09375 0  0.3125 0.09375 0  0.328125 0.09375 0  0.34375 0.09375 0  0.359375 0.09375 0  0.375 0.09375 0  0.390625 0.09375 0  0.40625 0.09375 0  0.421875 0.09375 0  0.4375 0.09375 0  0.453125 0.09375 0  0.46875 0.09375 0  0.484375 0.09375 0  0.5 0.09375 0  0.515625 0.09375 0  0.53125 0.09375 0  0.546875 0.09375 0  0.5625 0.09375 0  0.578125 0.09375 0  0.59375 0.09375 0  0.609375 0.09375 0  0.625 0.09375 0  0.640625 0.09375 0  0.65625 0.09375 0  0.671875 0.09375 0  0.6875 0.09375 0  0.703125 0.09375 0  0.71875 0.09375 0  0.734375 0.09375 0  0.75 0.09375 0  0.765625 0.09375 0  0.78125 0.09375 0  0.796875 0.09375 0  0.8125 0.09375 0  0.828125 0.09375 0  0.84375 0.09375 0  0.859375 0.09375 0  0.875 0.09375 0  0.890625 0.09375 0  0.90625 0.09375 0  0.921875 0.09375 0  0.9375 0.09375 0  0.953125 0.09375 0  0.96875 0.09375 0  0.984375 0.09375 0  1 0.09375 0  0 0.109375 0  0.015625 0.109375 0  0.03125 0.109375 0  0.046875 0.109375 0  0.0625 0.109375 0  0.078125 0.109375 0  0.09375 0.109375 0  0.109375 0.109375 0  0.125 0.109375 0  0.140625 0.109375 0  0.15625 0.109375 0  0.171875 0.109375 0  0.1875 0.109375 0  0.203125 0.109375 0  0.21875 0.109375 0  0.234375 0.109375 0  0.25 0.109375 0  0.265625 0.109375 0  0.28125 0.109375 0  0.296875 0.109375 0  0.3125 0.109375 0  0.328125 0.109375 0  0.34375 0.109375 0  0.359375 0.109375 0  0.375 0.109375 0  0.390625 0.109375 0  0.40625 0.109375 0  0.421875 0.109375 0  0.4375 0.109375 0  0.453125 0.109375 0  0.46875 0.109375 0  0.484375 0.109375 0  0.5 0.109375 0  0.515625 0.109375 0  0.53125 0.109375 0  0.546875 0.109375 0  0.5625 0.109375 0  0.578125 0.109375 0  0.59375 0.109375 0  0.609375 0.109375 0  0.625 0.109375 0  0.640625 0.109375 0  0.65625 0.109375 0  0.671875 0.109375 0  0.6875 0.109375 0  0.703125 0.109375 0  0.71875 0.109375 0  0.734375 0.109375 0  0.75 0.109375 0  0.765625 0.109375 0  0.78125 0.109375 0  0.796875 0.109375 0  0.8125 0.109375 0  0.828125 0.109375 0  0.84375 0.109375 0  0.859375 0.109375 0  0.875 0.109375 0  0.890625 0.109375 0  0.90625 0.109375 0  0.921875 0.109375 0  0.9375 0.109375 0  0.953125 0.109375 0  0.96875 0.109375 0  0.984375 0.109375 0  1 0.109375 0  0 0.125 0  0.015625 0.125 0  0.03125 0.125 0  0.046875 0.125 0  0.0625 0.125 0  0.078125 0.125 0  0.09375 0.125 0  0.109375 0.125 0  0.125 0.12
[...]
<PointData  Scalars="f_12"> 
<DataArray  type="Float64"  Name="f_12"  format="ascii">6.3327851998425311e-01  6.3327877333087701e-01  6.3327952558947176e-01  6.3328075210858892e-01  6.3328241246053096e-01  6.3328445118298327e-01  6.3328679888257344e-01  6.3328937361995352e-01  6.3329208254896074e-01  6.3329482377857182e-01  6.3329748842232381e-01  6.3329996279631573e-01  6.3330213072398744e-01  6.3330387590366566e-01  6.3330508429339616e-01  6.3330564646686438e-01  6.3330545989426734e-01  6.3330443110283774e-01  6.3330247767336301e-01  6.3329953003149841e-01  6.3329553299595276e-01  6.3329044704974136e-01  6.3328424930563632e-01  6.3327693414267727e-01  6.3326851349707969e-01  6.3325901679802132e-01  6.3324849054646537e-01  6.3323699754326657e-01  6.3322461578107492e-01  6.3321143702281024e-01  6.3319756509743619e-01  6.3318311395116023e-01  6.3316820549873243e-01  6.3315296732495285e-01  6.3313753029058062e-01  6.3312202609939305e-01  6.3310658488403282e-01  6.3309133286748243e-01  6.3307639015451678e-01  6.3306186870346082e-01  6.3304787052315470e-01  6.3303448613346813e-01  6.3302179332025321e-01  6.3300985620753492e-01  6.3299872466130280e-01  6.3298843403067961e-01  6.3297900522377171e-01  6.3297044510731404e-01  6.3296274721153489e-01  6.3295589271465091e-01  6.3294985167523887e-01  6.3294458447558100e-01  6.3294004343507093e-01  6.3293617455000895e-01  6.3293291931466178e-01  6.3293021657831905e-01  6.3292800439419161e-01  6.3292622181825098e-01  6.3292481061930683e-01  6.3292371686555282e-01  6.3292289235720334e-01  6.3292229587944204e-01  6.3292189425444434e-01  6.3292166317528420e-01  6.3292158778498564e-01  6.3327545212567193e-01  6.3327570610145745e-01  6.3327646059147291e-01  6.3327769075262152e-01  6.3327935614622743e-01  6.3328140129215760e-01  6.3328375677507565e-01  6.3328634063073019e-01  6.3328905998609508e-01  6.3329181292227343e-01  6.3329449052485365e-01  6.3329697908279914e-01  6.3329916239403961e-01  6.3330092413371886e-01  6.3330215023958503e-01  6.3330273126830383e-01  6.3330256467653723e-01  6.3330155698147361e-01  6.3329962575715282e-01  6.3329670142538719e-01  6.3329272880337073e-01  6.3328766837419603e-01  6.3328149725143590e-01  6.3327420981469029e-01  6.3326581799947368e-01  6.3325635123196156e-01  6.3324585600679417e-01  6.3323439511421176e-01  6.3322204653106617e-01  6.3320890199849511e-01  6.3319506531700076e-01  6.3318065039705773e-01  6.3316577910991956e-01  6.3315057898872207e-01  6.3313518083406439e-01  6.3311971628080210e-01  6.3310431538368050e-01  6.3308910427863474e-01  6.3307420297411432e-01  6.3305972332275340e-01  6.3304576721830719e-01  6.3303242505621138e-01  6.3301977448866875e-01  6.3300787949709469e-01  6.3299678979629492e-01  6.3298654057618231e-01  6.3297715257834297e-01  6.3296863249657953e-01  6.3296097368285642e-01  6.3295415713305658e-01  6.3294815272078619e-01  6.3294292064231139e-01  6.3293841303169485e-01  6.3293457570244172e-01  6.3293134997050104e-01  6.3292867451332879e-01  6.3292648722082478e-01  6.3292472699620450e-01  6.3292333546806678e-01  6.3292225857884510e-01  6.3292144801922423e-01  6.3292086248272272e-01  6.3292046871925123e-01  6.3292024237094657e-01  6.3292016853250732e-01  6.3326626824275456e-01  6.3326652409986917e-01  6.3326728500898799e-01  6.3326852583101023e-01  6.3327020609329843e-01  6.3327227026656963e-01  6.3327464887452645e-01  6.3327725988289041e-01  6.3328001034223169e-01  6.3328279825360301e-01  6.3328551462160776e-01  6.3328804565589181e-01  6.3329027507911750e-01  6.3329208649727409e-01  6.3329336578672057e-01  6.3329400345166720e-01  6.3329389690587601e-01  6.3329295263323782e-01  6.3329108818355329e-01  6.3328823396233591e-01  6.3328433477677371e-01  6.3327935110413192e-01  6.3327326005384665e-01  6.3326605600031138e-01  6.3325775086984804e-01  6.3324837407249346e-01  6.3323797207690757e-01  6.3322660763476835e-01  6.3321435866927045e-01  6.3320131685056080e-01  6.3318758588887525e-01  6.3317327958349956e-01  6.3315851967220427e-01  6.3314343353121616e-01  6.3312815177986481e-01  6.3311280584659779e-01  6.3309752555395671e-01  6.3308243677932241e-01  6.3306765924577779e-01  6.3305330449343333e-01  6.3303947407616445e-01  6.3302625802217649e-01  6.3301373358936375e-01  6.3300196433836364e-01  6.3299099953775517e-01  6.3298087390725877e-01  6.3297160769630645e-01  6.3296320708713139e-01  6.3295566490382194e-01  6.3294896160173719e-01  6.3294306650550280e-01  6.3293793925862996e-01  6.3293353144377551e-01  6.3292978832988700e-01  6.3292665070100507e-01  6.3292405672133956e-01  6.3292194379233224e-01  6.3292025035965660e-01  6.3291891763129282e-01  6.3291789117173602e-01  6.3291712234179198e-01  6.3291656955804776e-01  6.3291619935077781e-01  6.3291598720373998e-01  6.3291591805917224e-01  6.3325102790194010e-01  6.3325128704857514e-01  6.3325205859214784e-01  6.3325331709209098e-01  6.3325502201381911e-01  6.3325711774542803e-01  6.3325953470965768e-01  6.3326219075665013e-01  6.3326499281100301e-01  6.3326783874184156e-01  6.3327061942034080e-01  6.3327322092549687e-01  6.3327552685602106e-01  6.3327742070404147e-01  6.3327878824485706e-01  6.3327951989632347e-01  6.3327951300156071e-01  6.3327867398957827e-01  6.3327692037013206e-01  6.3327418252165557e-01  6.3327040523447342e-01  6.3326554897569032e-01  6.3325959084715455e-01  6.3325252521366771e-01  6.3324436398512496e-01  6.3323513654339991e-01  6.3322488931246390e-01  6.3321368497824904e-01  6.3320160137299675e-01  6.3318873004700038e-01  6.3317517455854289e-01  6.3316104852015487e-01  6.3314647344580555e-01  6.3313157644903428e-01  6.3311648784609131e-01  6.3310133872071117e-01  6.3308625850805678e-01  6.3307137265460067e-01  6.3305680040828949e-01  6.3304265278935701e-01  6.3302903078679784e-01  6.3301602381899580e-01  6.3300370848958354e-01  6.3299214766154777e-01  6.3298138986413843e-01  6.3297146903854340e-01  6.3296240461976949e-01  6.3295420194393681e-01  6.3294685296244679e-01  6.3294033723741594e-01  6.3293462318655924e-01  6.3292966954050267e-01  6.3292542697146259e-01  6.3292183984943096e-01  6.3291884808051269e-01  6.3291638898189195e-01  6.3291439914897363e-01  6.3291281627246754e-01  6.3291158086635080e-01  6.3291063787155033e-01  6.3290993810457485e-01  6.3290943952495426e-01  6.3290910829999514e-01  6.3290891964981066e-01  6.3290885830264010e-01  6.3322982997240751e-01  6.3323009379585760e-01  6.3323088011375106e-01  6.3323216317773023e-01  6.3323390236780308e-01  6.3323604195770822e-01  6.3323851223088146e-01  6.3324123087824791e-01  6.3324410465100145e-01  6.3324703123674952e-01  6.3324990132315162e-01  6.3325260080957113e-01  6.3325501312435439e-01  6.3325702160318031e-01  6.3325851188251780e-01  6.3325937426159729e-01  6.3325950598645508e-01  6.3325881341057366e-01  6.3325721398840407e-01  6.3325463806065885e-01  6.3325103039367592e-01  6.3324635143940977e-01  6.3324057828764391e-01  6.3323370528784750e-01  6.3322574432460976e-01  6.3321672473773627e-01  6.3320669288573350e-01  6.3319571135940855e-01  6.3318385786048381e-01  6.3317122376824964e-01  6.3315791242510677e-01  6.3314403717912415e-01  6.3312971922818007e-01  6.3311508531561533e-01  6.3310026533137320e-01  6.3308538987515239e-01  6.3307058783903014e-01  6.3305598406626939e-01  6.3304169714064396e-01  6.3302783735667256e-01  6.3301450491585165e-01  6.3300178838749110e-01  6.3298976346537039e-01  6.3297849204338019e-01  6.3296802162485899e-01  6.3295838507172431e-01  6.3294960069094086e-01  6.3294167264760703e-01  6.3293459168615052e-01  6.3292833613402044e-01  6.3292287315600892e-01  6.3291816022210912e-01  6.3291414674773183e-01  6.3291077586228350e-01  6.3290798626058353e-01  6.3290571409140040e-01  6.3290389483843235e-01  6.3290246515124349e-01  6.3290136458681434e-01  6.3290053722624495e-01  6.3289993313552617e-01  6.3289950964390940e-01  6.3289923241805013e-01  6.3289907631457820e-01  6.3289902578673096e-01  6.3320281177881621e-01  6.3320308163237660e-01  6.3320388675532169e-01  6.3320520108700362e-01  6.3320698390039065e-01  6.3320917932546095e-01  6.3321171747053506e-01  6.3321451582649790e-01  6.3321748092678642e-01  6.3322051023116288e-01  6.3322349419703516e-01  6.3322631849848943e-01  6.3322886635031472e-01  6.3323102089215999e-01  6.3323266758659846e-01  6.3323369658427953e-01  6.3323400500957716e-01  6.3323349912115234e-01  6.3323209630369848e-01  6.3322972684980738e-01  6.3322633549438656e-01  6.3322188266838086e-01  6.3321634544365768e-01  6.3320971814677451e-01  6.3320201262590015e-01  6.3319325816229766e-01  6.3318350102540777e-01  6.3317280367852513e-01  6.3316124365017679e-01  6.3314891209436663e-01  6.3313591207060771e-01  6.3312235658186888e-01  6.3310836641495027e-01  6.3309406783311684e-01  6.3307959017484938e-01  6.3306506341511148e-01  6.3305061574648891e-01  6.3303637123684264e-01  6.3302244761778492e-01  6.3300895425440196e-01  6.3299599034139387e-01  6.3298364336437352e-01  6.3297198785770226e-01  6.3296108448221755e-01  6.3295097943774381e-01  6.3294170421664897e-01  6.3293327569612778e-01  6.3292569655857878e-01  6.3291895602161308e-01  6.3291303085207651e-01  6.3290788663217035e-01  6.3290347924048229e-01  6.3289975650662045e-01  6.3289665999528100e-01  6.3289412687402591e-01  6.3289209181880546e-01  6.3289048891227195e-01  6.3288925349207992e-01  6.3288832390947825e-01  6.3288764316235446e-01  6.3288716037124448e-01  6.3288683207143526e-01  6.3288662329894729e-01  6.3288650845271310e-01  6.3288647165254452e-01  6.3317014800351623e-01  6.3317042519538524e-01  6.3317125301280386e-01  6.3317260508118989e-01  6.3317444054671657e-01  6.3317670336889087e-01  6.3317932344835670e-01  6.3318221803882768e-01  6.3318529341566998e-01  6.3318844676874886e-01  6.3319156828286971e-01  6.3319454336555925e-01  6.3319725497906754e-01  6.3319958603136772e-01  6.3320142177960792e-01  6.3320265219894456e-01  6.3320317426996542e-01  6.3320289413902020e-01  6.3320172910769812e-01  6.3319960941045750e-01  6.3319647974299931e-01  6.3319230050837727e-01  6.3318704875301590e-01  6.3318071877072524e-01  6.3317332235937096e-01  6.3316488872201071e-01  6.3315546401189904e-01  6.3314511052867928e-01  6.3313390558112259e-01  6.3312194003974731e-01  6.3310931661033099e-01  6.3309614786644386e-01  6.3308255408545777e-01  6.3306866093774594e-01  6.3305459708278722e-01  6.3304049172843058e-01  6.3302647221054098e-01  6.3301266164958059e-01  6.3299917673839279e-01  6.3298612571164325e-01  6.3297360654217105e-01  6.3296170540313712e-01  6.3295049542753667e-01  6.3294003578863522e-01  6.3293037111643013e-01  6.3292153125659312e-01  6.3291353136972928e-01  6.3290637236043201e-01  6.3290004161772961e-01  6.3289451404130781e-01  6.3288975332154551e-01  6.3288571343607536e-01  6.3288234032141377e-01  6.3287957367530312e-01  6.3287734884380120e-01  6.3287559874687427e-01  6.3287425579721179e-01  6.3287325376907921e-01  6.3287252957710105e-01  6.3287202492867900e-01  6.3287168781808212e-01  6.3287147383486253e-01  6.3287134726391980e-01  6.3287128195912667e-01  6.3287126165231966e-01  6.3313204928194022e-01  6.3313233506457589e-01  6.3313318929305895e-01  6.3313458528057609e-01  6.3313648202907846e-01  6.3313882330412741e-01  6.3314153877011148e-01  6.3314454541101717e-01  6.3314774920885031e-01  6.3315104704684522e-01  6.3315432880030731e-01  6.3315747957434843e-01  6.3316038204493652e-01  6.3316291885761733e-01  6.3316497503699942e-01  6.3316644035963576e-01  6.3316721164329703e-01  6.3316719490683127e-01  6.3316630735682999e-01  6.3316447916018925e-01  6.3316165496534516e-01  6.3315779513945858e-01  6.3315287669408726e-01  6.3314689387785150e-01  6.3313985842121456e-01  6.3313179942563591e-01  6.3312276289693670e-01  6.3311281093056127e-01  6.3310202056439202e-01  6.3309048232265186e-01  6.3307829848201058e-01  6.3306558109803657e-01  6.3305244983637821e-01  6.3303902965826342e-01  6.3302544841386588e-01  6.3301183439961783e-01  6.3299831393653971e-01  6.3298500902602073e-01  6.3297203513726474e-01  6.3295949917686489e-01  6.3294749768584724e-01  6.3293611530321425e-01  6.3292542352775094e-01  6.3291547980187490e-01  6.3290632693286186e-01  6.3289799285811332e-01  6.3289049075247872e-01  6.3288381946724148e-01  6.3287796428244070e-01  6.3287289794692636e-01  6.3286858197414386e-01  6.3286496815626014e-01  6.3286200025502304e-01  6.3285961582478834e-01  6.3285774812149298e-01  6.3285632805101466e-01  6.3285528611126374e-01  6.3285455428440429e-01  6.3285406783861242e-01  6.3285376700256102e-01  6.3285359848012468e-01  6.3285351677740542e-01  6.3285348531888042e-01  6.3285347733410302e-01  6.3285347611725451e-01  6.3308876049452645e-01  6.3308905605422050e-01  6.3308994020656284e-01  6.3309138595787762e-01  6.3309335215129581e-01  6.3309578233882247e-01  6.3309860592476785e-01  6.3310173959631955e-01  6.3310508901286133e-01  6.3310855072065120e-01  6.3311201425515018e-01  6.3311536438972060e-01  6.3311848348660249e-01  6.3312125390405638e-01  6.3312356041235807e-01  6.3312529257095262e-01  6.3312634701953052e-01  6.3312662963708821e-01  6.3312605752517970e-01  6.3312456077454948e-01  6.3312208397814240e-01  6.3311858745808736e-01  6.3311404817960570e-01  6.3310846033082457e-01  6.3310183555412791e-01  6.3309420282181694e-01  6.3308560795639790e-01  6.3307611280360543e-01  6.3306579407414665e-01  6.3305474187793764e-01  6.3304305798206639e-01  6.3303085383064939e-01  6.3301824837088683e-01  6.3300536573477073e-01  6.3299233282980361e-01  6.3297927689461386e-01  6.3296632307635103e-01  6.3295359208615398e-01  6.3294119798682558e-01  6.3292924616317092e-01  6.3291783152040637e-01  6.3290703694981265e-01  6.3289693209358577e-01  6.3288757243289517e-01  6.3287899871472175e-01  6.3287123672436374e-01  6.3286429740182237e-01  6.3285817729182370e-01  6.3285285930923996e-01  6.3284831379434459e-01  6.3284449982586277e-01  6.3284136675434233e-01  6.3283885591408418e-01  6.3283690246885194e-01  6.3283543734486836e-01  6.3283438920419965e-01  6.3283368641246762e-01  6.3283325895682152e-01  6.3283304027304599e-01  6.3283296894441998e-01  6.3283299023921102e-01  6.3283305745829477e-01  6.3283313306910760e-01  6.3283318960682944e-01  6.3283320988403491e-01  6.3304055876169940e-01  6.3304086520839165e-01  6.3304178256337029e-01  6.3304328353538508e-01  6.3304532679747638e-01  6.3304785567299726e-01  6.3305079928791064e-01  6.3305407401193614e-01  6.3305758515962451e-01  6.3306122891738426e-01  6.3306489445815439e-01  6.3306846620184853e-01  6.3307182617691293e-01  6.3307485643637973e-01  6.3307744148065859e-01  6.3307947063902270e-01  6.3308084036230394e-01  6.3308145638072544e-01  6.3308123568307195e-01  6.3308010827650685e-01  6.3307801869027713e-01  6.3307492719126535e-01  6.3307081068478865e-01  6.3306566328015612e-01  6.3305949650717064e-01  6.3305233917691806e-01  6.3304423688768752e-01  6.3303525118459703e-01  6.3302545838927959e-01  6.3301494812366488e-01  6.3300382155923185e-01  6.3299218942992563e-01  6.3298016985297823e-01  6.3296788600692444e-01  6.3295546371997546e-01  6.3294302902440713e-01  6.3293070573363153e-01  6.3291861309807640e-01  6.3290686359388981e-01  6.3289556089489307e-01  6.3288479807323905e-01  6.3287465606806415e-01  6.3286520245427447e-01  6.3285649053569815e-01  6.3284855877841217e-01  6.3284143059137354e-01  6.3283511445276974e-01  6.3282960437201530e-01  6.3282488066927223e-01  6.3282091104697991e-01  6.3281765192135031e-01  6.3281504997627491e-01  6.3281304389774451e-01  6.3281156624379009e-01  6.3281054540317416e-01  6.3280990759557820e-01  6.3280957886680211e-01  6.3280948703439832e-01  6.3280956354205176e-01  6.3280974518469080e-01  6.3280997567055453e-01  6.3281020699103441e-01  6.3281040057385685e-01  6.3281052819991079e-01  6.3281057216266934e-01  6.3298775115144212e-01  6.3298806950887165e-01  6.3298902308210181e-01  6.3299058429572064e-01  6.3299271164521986e-01  6.3299534821537062e-01  6.3299842284186547e-01  6.3300185156360989e-01  6.3300553933617099e-01  6.3300938197178491e-01  6.3301326826697157e-01  6.3301708227524411e-01  6.3302070567965529e-01  6.3302402021801218e-01  6.3302691011253953e-01  6.3302926445557395e-01  6.3303097950354514e-01  6.3303196083304192e-01  6.3303212531516417e-01  6.3303140286760839e-01  6.3302973794800477e-01  6.3302709075685004e-01  6.3302343812393969e-01  6.3301877405836893e-01  6.3301310994890125e-01  6.3300647440865443e-01  6.3299891276552100e-01  6.3299048620740439e-01  6.3298127059903531e-01  6.3297135499468626e-01  6.3296083987833074e-01  6.3294983516947678e-01  6.3293845803883697e-01  6.3292683058297428e-01  6.3291507741085262e-01  6.3290332319770581e-01  6.3289169026264280e-01  6.3288029622590669e-01  6.3286925179965492e-01  6.3285865876261516e-01  6.3284860816408417e-01  6.3283917879665286e-01  6.3283043596995747e-01  6.3282243060989596e-01  6.3281519869935499e-01  6.3280876106781137e-01  6.3280312352844625e-01  6.3279827735288219e-01  6.3279420006555798e-01  6.3279085653230849e-01  6.3278820031112171e-01  6.3278617522746816e-01  6.3278471713218132e-01  6.3278375579670387e-01  6.3278321689864758e-01  6.3278302405005782e-01  6.3278310082145284e-01  6.3278337271653207e-01  6.3278376905526301e-01  6.3278422472666196e-01  6.3278468177679259e-01  6.3278509080208256e-01  6.3278541212283301e-01  6.3278561671659639e-01  6.3278568632731702e-01  6.3293067211243481e-01  6.3293100330876606e-01  6.3293199582505455e-01  6.3293362181942336e-01  6.3293583960663258e-01  6.3293859202872882e-01  6.3294180762632302e-01  6.3294540210236605e-01  6.3294928004833195e-01  6.3295333689755662e-01  6.3295746106610329e-01  6.3296153623796947e-01  6.3296544374874519e-01  6.3296906501998351e-01  6.3297228399557437e-01  6.3297498953132147e-01  6.3297707768971700e-01  6.3297845389358287e-01  6.3297903489479468e-01  6.3297875051769448e-01  6.3297754514100601e-01  6.3297537888702449e-01  6.3297222849250656e-01  6.3296808784193936e-01  6.3296296815063136e-01  6.3295689779221975e-01  6.3294992177263476e-01  6.3294210086013591e-01  6.3293351038862933e-01  6.3292423875890347e-01  6.3291438566951119e-01  6.3290406011557887e-01  6.3289337819963842e-01  6.3288246080344335e-01  6.3287143117346434e-01  6.3286041247519098e-01  6.3284952537238259e-01  6.3283888568692992e-01  6.3282860219300852e-01  6.3281877459575797e-01  6.3280949173992851e-01  6.3280083008793131e-01  6.3279285249971973e-01  6.3278560733912625e-01  6.3277912792292157e-01  6.3277343232019223e-01  6.3276852350090596e-01  6.3276438982397476e-01  6.3276100584699368e-01  6.3275833343233368e-01  6.3275632311761076e-01  6.3275491571290565e-01  6.3275404408262048e-01  6.3275363506660898e-01  6.3275361149326759e-01  6.3275389423662032e-01  6.3275440427001950e-01  6.3275506467081288e-01  6.3275580253305930e-01  6.3275655074891535e-01  6.3275724962347490e-01  6.3275784829241244e-01  6.3275830591657611e-01  6.3275859263254375e-01  6.3275868961184956e-01  6.3286968064967353e-01  6.3287002550875515e-01  6.3287105937643473e-01  6.3287275416645561e-01  6.3287506801436055e-01  6.3287794352169113e-01  6.3288130893698502e-01  6.3288507963112517e-01  6.3288915983633565e-01  6.3289344461289754e-01  6.3289782200325595e-01  6.3290217532964221e-01  6.3290638558866441e-01  6.3291033389454354e-01  6.3291390392178259e-01  6.3291698429808751e-01  6.3291947089926792e-01  6.3292126899967149e-01  6.3292229523439192e-01  6.3292247933303902e-01  6.3292176558919933e-01  6.3292011403481341e-01  6.3291750129444990e-01  6.3291392110079081e-01  6.3290938445944944e-01  6.3290391945840030e-01  6.3289757072470698e-01  6.3289039853874363e-01  6.3288247762358618e-01  6.3287389563456220e-01  6.3286475138088483e-01  6.3285515281772287e-01  6.3284521485272949e-01  6.3283505701581444e-01  6.3282480104459382e-01  6.3281456844033512e-01  6.3280447805022044e-01  6.3279464373129324e-01  6.3278517214952745e-01  6.3277616076408649e-01  6.3276769604213068e-01  6.3275985194361717e-01  6.3275268870860790e-01  6.3274625197185930e-01  6.3274057222116542e-01  6.3273566460727293e-01  6.3273152910447095e-01  6.3272815101238544e-01  6.3272550178134424e-01  6.3272354013613685e