<?xml version="1.0"?>
<VTKFile type="UnstructuredGrid"  version="0.1"  >
<UnstructuredGrid>
<Piece  NumberOfPoints="4225" NumberOfCells="8192">
<Points>
<DataArray  type="Float64"  NumberOfComponents="3"  format="ascii">0 0 0  0.015625 0 0  0.03125 0 0  0.046875 0 0  0.0625 0 0  0.078125 0 0  0.09375 0 0  0.109375 0 0  0.125 0 0  0.140625 0 0  0.15625 0 0  0.171875 0 0  0.1875 0 0  0.203125 0 0  0.21875 0 0  0.234375 0 0  0.25 0 0  0.265625 0 0  0.28125 0 0  0.296875 0 0  0.3125 0 0  0.328125 0 0  0.34375 0 0  0.359375 0 0  0.375 0 0  0.390625 0 0  0.40625 0 0  0.421875 0 0  0.4375 0 0  0.453125 0 0  0.46875 0 0  0.484375 0 0  0.5 0 0  0.515625 0 0  0.53125 0 0  0.546875 0 0  0.5625 0 0  0.578125 0 0  0.59375 0 0  0.609375 0 0  0.625 0 0  0.640625 0 0  0.65625 0 0  0.671875 0 0  0.6875 0 0  0.703125 0 0  0.71875 0 0  0.734375 0 0  0.75 0 0  0.765625 0 0  0.78125 0 0  0.796875 0 0  0.8125 0 0  0.828125 0 0  0.84375 0 0  0.859375 0 0  0.875 0 0  0.890625 0 0  0.90625 0 0  0.921875 0 0  0.9375 0 0  0.953125 0 0  0.96875 0 0  0.984375 0 0  1 0 0  0 0.015625 0  0.015625 0.015625 0  0.03125 0.015625 0  0.046875 0.015625 0  0.0625 0.015625 0  0.078125 0.015625 0  0.09375 0.015625 0  0.109375 0.015625 0  0.125 0.015625 0  0.140625 0.015625 0  0.15625 0.015625 0  0.171875 0.015625 0  0.1875 0.015625 0  0.203125 0.015625 0  0.21875 0.015625 0  0.234375 0.015625 0  0.25 0.015625 0  0.265625 0.015625 0  0.28125 0.015625 0  0.296875 0.015625 0  0.3125 0.015625 0  0.328125 0.015625 0  0.34375 0.015625 0  0.359375 0.015625 0  0.375 0.015625 0  0.390625 0.015625 0  0.40625 0.015625 0  0.421875 0.015625 0  0.4375 0.015625 0  0.453125 0.015625 0  0.46875 0.015625 0  0.484375 0.015625 0  0.5 0.015625 0  0.515625 0.015625 0  0.53125 0.015625 0  0.546875 0.015625 0  0.5625 0.015625 0  0.578125 0.015625 0  0.59375 0.015625 0  0.609375 0.015625 0  0.625 0.015625 0  0.640625 0.015625 0  0.65625 0.015625 0  0.671875 0.015625 0  0.6875 0.015625 0  0.703125 0.015625 0  0.71875 0.015625 0  0.734375 0.015625 0  0.75 0.015625 0  0.765625 0.015625 0  0.78125 0.015625 0  0.796875 0.015625 0  0.8125 0.015625 0  0.828125 0.015625 0  0.84375 0.015625 0  0.859375 0.015625 0  0.875 0.015625 0  0.890625 0.015625 0  0.90625 0.015625 0  0.921875 0.015625 0  0.9375 0.015625 0  0.953125 0.015625 0  0.96875 0.015625 0  0.984375 0.015625 0  1 0.015625 0  0 0.03125 0  0.015625 0.03125 0  0.03125 0.03125 0  0.046875 0.03125 0  0.0625 0.03125 0  0.078125 0.03125 0  0.09375 0.03125 0  0.109375 0.03125 0  0.125 0.03125 0  0.140625 0.03125 0  0.15625 0.03125 0  0.171875 0.03125 0  0.1875 0.03125 0  0.203125 0.03125 0  0.21875 0.03125 0  0.234375 0.03125 0  0.25 0.03125 0  0.265625 0.03125 0  0.28125 0.03125 0  0.296875 0.03125 0  0.3125 0.03125 0  0.328125 0.03125 0  0.34375 0.03125 0  0.359375 0.03125 0  0.375 0.03125 0  0.390625 0.03125 0  0.40625 0.03125 0  0.421875 0.03125 0  0.4375 0.03125 0  0.453125 0.03125 0  0.46875 0.03125 0  0.484375 0.03125 0  0.5 0.03125 0  0.515625 0.03125 0  0.53125 0.03125 0  0.546875 0.03125 0  0.5625 0.03125 0  0.578125 0.03125 0  0.59375 0.03125 0  0.609375 0.03125 0  0.625 0.03125 0  0.640625 0.03125 0  0.65625 0.03125 0  0.671875 0.03125 0  0.6875 0.03125 0  0.703125 0.03125 0  0.71875 0.03125 0  0.734375 0.03125 0  0.75 0.03125 0  0.765625 0.03125 0  0.78125 0.03125 0  0.796875 0.03125 0  0.8125 0.03125 0  0.828125 0.03125 0  0.84375 0.03125 0  0.859375 0.03125 0  0.875 0.03125 0  0.890625 0.03125 0  0.90625 0.03125 0  0.921875 0.03125 0  0.9375 0.03125 0  0.953125 0.03125 0  0.96875 0.03125 0  0.984375 0.03125 0  1 0.03125 0  0 0.046875 0  0.015625 0.046875 0  0.03125 0.046875 0  0.046875 0.046875 0  0.0625 0.046875 0  0.078125 0.046875 0  0.09375 0.046875 0  0.109375 0.046875 0  0.125 0.046875 0  0.140625 0.046875 0  0.15625 0.046875 0  0.171875 0.046875 0  0.1875 0.046875 0  0.203125 0.046875 0  0.21875 0.046875 0  0.234375 0.046875 0  0.25 0.046875 0  0.265625 0.046875 0  0.28125 0.046875 0  0.296875 0.046875 0  0.3125 0.046875 0  0.328125 0.046875 0  0.34375 0.046875 0  0.359375 0.046875 0  0.375 0.046875 0  0.390625 0.046875 0  0.40625 0.046875 0  0.421875 0.046875 0  0.4375 0.046875 0  0.453125 0.046875 0  0.46875 0.046875 0  0.484375 0.046875 0  0.5 0.046875 0  0.515625 0.046875 0  0.53125 0.046875 0  0.546875 0.046875 0  0.5625 0.046875 0  0.578125 0.046875 0  0.59375 0.046875 0  0.609375 0.046875 0  0.625 0.046875 0  0.640625 0.046875 0  0.65625 0.046875 0  0.671875 0.046875 0  0.6875 0.046875 0  0.703125 0.046875 0  0.71875 0.046875 0  0.734375 0.046875 0  0.75 0.046875 0  0.765625 0.046875 0  0.78125 0.046875 0  0.796875 0.046875 0  0.8125 0.046875 0  0.828125 0.046875 0  0.84375 0.046875 0  0.859375 0.046875 0  0.875 0.046875 0  0.890625 0.046875 0  0.90625 0.046875 0  0.921875 0.046875 0  0.9375 0.046875 0  0.953125 0.046875 0  0.96875 0.046875 0  0.984375 0.046875 0  1 0.046875 0  0 0.0625 0  0.015625 0.0625 0  0.03125 0.0625 0  0.046875 0.0625 0  0.0625 0.0625 0  0.078125 0.0625 0  0.09375 0.0625 0  0.109375 0.0625 0  0.125 0.0625 0  0.140625 0.0625 0  0.15625 0.0625 0  0.171875 0.0625 0  0.1875 0.0625 0  0.203125 0.0625 0  0.21875 0.0625 0  0.234375 0.0625 0  0.25 0.0625 0  0.265625 0.0625 0  0.28125 0.0625 0  0.296875 0.0625 0  0.3125 0.0625 0  0.328125 0.0625 0  0.34375 0.0625 0  0.359375 0.0625 0  0.375 0.0625 0  0.390625 0.0625 0  0.40625 0.0625 0  0.421875 0.0625 0  0.4375 0.0625 0  0.453125 0.0625 0  0.46875 0.0625 0  0.484375 0.0625 0  0.5 0.0625 0  0.515625 0.0625 0  0.53125 0.0625 0  0.546875 0.0625 0  0.5625 0.0625 0  0.578125 0.0625 0  0.59375 0.0625 0  0.609375 0.0625 0  0.625 0.0625 0  0.640625 0.0625 0  0.65625 0.0625 0  0.671875 0.0625 0  0.6875 0.0625 0  0.703125 0.0625 0  0.71875 0.0625 0  0.734375 0.0625 0  0.75 0.0625 0  0.765625 0.0625 0  0.78125 0.0625 0  0.796875 0.0625 0  0.8125 0.0625 0  0.828125 0.0625 0  0.84375 0.0625 0  0.859375 0.0625 0  0.875 0.0625 0  0.890625 0.0625 0  0.90625 0.0625 0  0.921875 0.0625 0  0.9375 0.0625 0  0.953125 0.0625 0  0.96875 0.0625 0  0.984375 0.0625 0  1 0.0625 0  0 0.078125 0  0.015625 0.078125 0  0.03125 0.078125 0  0.046875 0.078125 0  0.0625 0.078125 0  0.078125 0.078125 0  0.09375 0.078125 0  0.109375 0.078125 0  0.125 0.078125 0  0.140625 0.078125 0  0.15625 0.078125 0  0.171875 0.078125 0  0.1875 0.078125 0  0.203125 0.078125 0  0.21875 0.078125 0  0.234375 0.078125 0  0.25 0.078125 0  0.265625 0.078125 0  0.28125 0.078125 0  0.296875 0.078125 0  0.3125 0.078125 0  0.328125 0.078125 0  0.34375 0.078125 0  0.359375 0.078125 0  0.375 0.078125 0  0.390625 0.078125 0  0.40625 0.078125 0  0.421875 0.078125 0  0.4375 0.078125 0  0.453125 0.078125 0  0.46875 0.078125 0  0.484375 0.078125 0  0.5 0.078125 0  0.515625 0.078125 0  0.53125 0.078125 0  0.546875 0.078125 0  0.5625 0.078125 0  0.578125 0.078125 0  0.59375 0.078125 0  0.609375 0.078125 0  0.625 0.078125 0  0.640625 0.078125 0  0.65625 0.078125 0  0.671875 0.078125 0  0.6875 0.078125 0  0.703125 0.078125 0  0.71875 0.078125 0  0.734375 0.078125 0  0.75 0.078125 0  0.765625 0.078125 0  0.78125 0.078125 0  0.796875 0.078125 0  0.8125 0.078125 0  0.828125 0.078125 0  0.84375 0.078125 0  0.859375 0.078125 0  0.875 0.078125 0  0.890625 0.078125 0  0.90625 0.078125 0  0.921875 0.078125 0  0.9375 0.078125 0  0.953125 0.078125 0  0.96875 0.078125 0  0.984375 0.078125 0  1 0.078125 0  0 0.09375 0  0.015625 0.09375 0  0.03125 0.09375 0  0.046875 0.09375 0  0.0625 0.09375 0  0.078125 0.09375 0  0.09375 0.09375 0  0.109375 0.09375 0  0.125 0.09375 0  0.140625 0.09375 0  0.15625 0.09375 0  0.171875 0.09375 0  0.1875 0.09375 0  0.203125 0.09375 0  0.21875 0.09375 0  0.234375 0.09375 0  0.25 0.09375 0  0.265625 0.09375 0  0.28125 0.09375 0  0.296875 0.09375 0  0.3125 0.09375 0  0.328125 0.09375 0  0.34375 0.09375 0  0.359375 0.09375 0  0.375 0.09375 0  0.390625 0.09375 0  0.40625 0.09375 0  0.421875 0.09375 0  0.4375 0.09375 0  0.453125 0.09375 0  0.46875 0.09375 0  0.484375 0.09375 0  0.5 0.09375 0  0.515625 0.09375 0  0.53125 0.09375 0  0.546875 0.09375 0  0.5625 0.09375 0  0.578125 0.09375 0  0.59375 0.09375 0  0.609375 0.09375 0  0.625 0.09375 0  0.640625 0.09375 0  0.65625 0.09375 0  0.671875 0.09375 0  0.6875 0.09375 0  0.703125 0.09375 0  0.71875 0.09375 0  0.734375 0.09375 0  0.75 0.09375 0  0.765625 0.09375 0  0.78125 0.09375 0  0.796875 0.09375 0  0.8125 0.09375 0  0.828125 0.09375 0  0.84375 0.09375 0  0.859375 0.09375 0  0.875 0.09375 0  0.890625 0.09375 0  0.90625 0.09375 0  0.921875 0.09375 0  0.9375 0.09375 0  0.953125 0.09375 0  0.96875 0.09375 0  0.984375 0.09375 0  1 0.09375 0  0 0.109375 0  0.015625 0.109375 0  0.03125 0.109375 0  0.046875 0.109375 0  0.0625 0.109375 0  0.078125 0.109375 0  0.09375 0.109375 0  0.109375 0.109375 0  0.125 0.109375 0  0.140625 0.109375 0  0.15625 0.109375 0  0.171875 0.109375 0  0.1875 0.109375 0  0.203125 0.109375 0  0.21875 0.109375 0  0.234375 0.109375 0  0.25 0.109375 0  0.265625 0.109375 0  0.28125 0.109375 0  0.296875 0.109375 0  0.3125 0.109375 0  0.328125 0.109375 0  0.34375 0.109375 0  0.359375 0.109375 0  0.375 0.109375 0  0.390625 0.109375 0  0.40625 0.109375 0  0.421875 0.109375 0  0.4375 0.109375 0  0.453125 0.109375 0  0.46875 0.109375 0  0.484375 0.109375 0  0.5 0.109375 0  0.515625 0.109375 0  0.53125 0.109375 0  0.546875 0.109375 0  0.5625 0.109375 0  0.578125 0.109375 0  0.59375 0.109375 0  0.609375 0.109375 0  0.625 0.109375 0  0.640625 0.109375 0  0.65625 0.109375 0  0.671875 0.109375 0  0.6875 0.109375 0  0.703125 0.109375 0  0.71875 0.109375 0  0.734375 0.109375 0  0.75 0.109375 0  0.765625 0.109375 0  0.78125 0.109375 0  0.796875 0.109375 0  0.8125 0.109375 0  0.828125 0.109375 0  0.84375 0.109375 0  0.859375 0.109375 0  0.875 0.109375 0  0.890625 0.109375 0  0.90625 0.109375 0  0.921875 0.109375 0  0.9375 0.109375 0  0.953125 0.109375 0  0.96875 0.109375 0  0.984375 0.109375 0  1 0.109375 0  0 0.125 0  0.015625 0.125 0  0.03125 0.125 0  0.046875 0.125 0  0.0625 0.125 0  0.078125 0.125 0  0.09375 0.125 0  0.109375 0.125 0  0.125 0.12
[...]
<PointData  Scalars="f_12"> 
<DataArray  type="Float64"  Name="f_12"  format="ascii">6.3201902682968991e-01  6.3201902708631164e-01  6.3201902785561204e-01  6.3201902913572716e-01  6.3201903092357214e-01  6.3201903321483965e-01  6.3201903600400966e-01  6.3201903928436298e-01  6.3201904304799694e-01  6.3201904728584457e-01  6.3201905198769670e-01  6.3201905714222606e-01  6.3201906273701514e-01  6.3201906875858560e-01  6.3201907519243128e-01  6.3201908202305224e-01  6.3201908923399319e-01  6.3201909680788260e-01  6.3201910472647416e-01  6.3201911297069147e-01  6.3201912152067385e-01  6.3201913035582347e-01  6.3201913945485566e-01  6.3201914879585042e-01  6.3201915835630440e-01  6.3201916811318593e-01  6.3201917804298968e-01  6.3201918812179392e-01  6.3201919832531817e-01  6.3201920862898120e-01  6.3201921900796054e-01  6.3201922943725264e-01  6.3201923989173225e-01  6.3201925034621342e-01  6.3201926077551074e-01  6.3201927115449896e-01  6.3201928145817432e-01  6.3201929166171411e-01  6.3201930174053700e-01  6.3201931167036252e-01  6.3201932142726847e-01  6.3201933098774976e-01  6.3201934032877416e-01  6.3201934942783833e-01  6.3201935826302158e-01  6.3201936681303938e-01  6.3201937505729366e-01  6.3201938297592331e-01  6.3201939054985146e-01  6.3201939776083182e-01  6.3201940459149231e-01  6.3201941102537729e-01  6.3201941704698683e-01  6.3201942264181421e-01  6.3201942779638098e-01  6.3201943249826920e-01  6.3201943673615146e-01  6.3201944049981829e-01  6.3201944378020247e-01  6.3201944656940134e-01  6.3201944886069517e-01  6.3201945064856380e-01  6.3201945192869957e-01  6.3201945269801740e-01  6.3201945295464690e-01  6.3201902577489055e-01  6.3201902603150728e-01  6.3201902680083022e-01  6.3201902808097643e-01  6.3201902986886116e-01  6.3201903216017741e-01  6.3201903494940515e-01  6.3201903822982497e-01  6.3201904199353376e-01  6.3201904623146488e-01  6.3201905093340849e-01  6.3201905608803743e-01  6.3201906168293376e-01  6.3201906770461913e-01  6.3201907413858671e-01  6.3201908096933668e-01  6.3201908818041319e-01  6.3201909575444426e-01  6.3201910367318359e-01  6.3201911191755433e-01  6.3201912046769515e-01  6.3201912930300819e-01  6.3201913840220825e-01  6.3201914774337475e-01  6.3201915730400415e-01  6.3201916706106442e-01  6.3201917699104948e-01  6.3201918707003757e-01  6.3201919727374745e-01  6.3201920757759755e-01  6.3201921795676519e-01  6.3201922838624569e-01  6.3201923884091393e-01  6.3201924929558362e-01  6.3201925972506834e-01  6.3201927010424286e-01  6.3201928040810262e-01  6.3201929061182471e-01  6.3201930069082735e-01  6.3201931062082939e-01  6.3201932037790864e-01  6.3201932993855925e-01  6.3201933927974863e-01  6.3201934837897311e-01  6.3201935721431168e-01  6.3201936576447926e-01  6.3201937400887753e-01  6.3201938192764495e-01  6.3201938950170444e-01  6.3201939671280927e-01  6.3201940354358721e-01  6.3201940997758221e-01  6.3201941599929412e-01  6.3201942159421598e-01  6.3201942674886902e-01  6.3201943145083528e-01  6.3201943568878705e-01  6.3201943945251460e-01  6.3201944273295074e-01  6.3201944552219269e-01  6.3201944781352049e-01  6.3201944960141410e-01  6.3201945088156597e-01  6.3201945165089157e-01  6.3201945190750930e-01  6.3201902261300846e-01  6.3201902286960832e-01  6.3201902363897422e-01  6.3201902491919015e-01  6.3201902670717192e-01  6.3201902899861229e-01  6.3201903178799079e-01  6.3201903506858792e-01  6.3201903883250021e-01  6.3201904307066026e-01  6.3201904777285811e-01  6.3201905292776561e-01  6.3201905852296436e-01  6.3201906454497514e-01  6.3201907097929033e-01  6.3201907781040956e-01  6.3201908502187576e-01  6.3201909259631628e-01  6.3201910051548360e-01  6.3201910876029999e-01  6.3201911731090288e-01  6.3201912614669320e-01  6.3201913524638520e-01  6.3201914458805664e-01  6.3201915414920284e-01  6.3201916390679025e-01  6.3201917383731199e-01  6.3201918391684497e-01  6.3201919412110619e-01  6.3201920442551329e-01  6.3201921480524181e-01  6.3201922523528609e-01  6.3201923569051932e-01  6.3201924614575400e-01  6.3201925657580260e-01  6.3201926695553801e-01  6.3201927725995466e-01  6.3201928746422820e-01  6.3201929754377562e-01  6.3201930747431456e-01  6.3201931723192095e-01  6.3201932679308848e-01  6.3201933613478278e-01  6.3201934523449899e-01  6.3201935407031518e-01  6.3201936262094494e-01  6.3201937086578874e-01  6.3201937878498415e-01  6.3201938635945309e-01  6.3201939357094783e-01  6.3201940040209492e-01  6.3201940683643765e-01  6.3201941285847518e-01  6.3201941845369947e-01  6.3201942360863117e-01  6.3201942831085145e-01  6.3201943254903248e-01  6.3201943631296353e-01  6.3201943959357720e-01  6.3201944238296992e-01  6.3201944467442184e-01  6.3201944646241248e-01  6.3201944774263452e-01  6.3201944851200398e-01  6.3201944876860583e-01  6.3201901735165045e-01  6.3201901760824208e-01  6.3201901837767793e-01  6.3201901965800933e-01  6.3201902144615218e-01  6.3201902373779872e-01  6.3201902652742836e-01  6.3201902980832048e-01  6.3201903357257139e-01  6.3201903781111257e-01  6.3201904251373320e-01  6.3201904766910433e-01  6.3201905326480623e-01  6.3201905928735858e-01  6.3201906572225242e-01  6.3201907255398582e-01  6.3201907976610072e-01  6.3201908734122225e-01  6.3201909526110178e-01  6.3201910350665946e-01  6.3201911205803130e-01  6.3201912089461632e-01  6.3201912999512655e-01  6.3201913933763798e-01  6.3201914889964406e-01  6.3201915865810909e-01  6.3201916858952389e-01  6.3201917866996316e-01  6.3201918887514219e-01  6.3201919918047578e-01  6.3201920956113788e-01  6.3201921999212018e-01  6.3201923044829367e-01  6.3201924090446870e-01  6.3201925133545511e-01  6.3201926171612410e-01  6.3201927202146735e-01  6.3201928222665860e-01  6.3201929230711262e-01  6.3201930223854452e-01  6.3201931199702865e-01  6.3201932155905594e-01  6.3201933090159035e-01  6.3201934000212501e-01  6.3201934883873578e-01  6.3201935739013448e-01  6.3201936563571992e-01  6.3201937355562765e-01  6.3201938113077771e-01  6.3201938834292104e-01  6.3201939517468264e-01  6.3201940160960401e-01  6.3201940763218312e-01  6.3201941322791066e-01  6.3201941838330611e-01  6.3201942308594949e-01  6.3201942732451155e-01  6.3201943108878123e-01  6.3201943436969010e-01  6.3201943715933384e-01  6.3201943945099226e-01  6.3201944123914411e-01  6.3201944251948206e-01  6.3201944328892168e-01  6.3201944354551587e-01  6.3201901000349148e-01  6.3201901026008411e-01  6.3201901102961688e-01  6.3201901231010937e-01  6.3201901409847705e-01  6.3201901639041158e-01  6.3201901918039149e-01  6.3201902246169595e-01  6.3201902622641948e-01  6.3201903046549301e-01  6.3201903516870428e-01  6.3201904032472289e-01  6.3201904592112756e-01  6.3201905194443619e-01  6.3201905838013817e-01  6.3201906521272955e-01  6.3201907242575006e-01  6.3201908000182294e-01  6.3201908792269701e-01  6.3201909616929031e-01  6.3201910472173606e-01  6.3201911355943075e-01  6.3201912266108384e-01  6.3201913200476867e-01  6.3201914156797556e-01  6.3201915132766595e-01  6.3201916126032809e-01  6.3201917134203334e-01  6.3201918154849401e-01  6.3201919185512190e-01  6.3201920223708763e-01  6.3201921266937988e-01  6.3201922312686665e-01  6.3201923358435474e-01  6.3201924401665133e-01  6.3201925439862394e-01  6.3201926470526149e-01  6.3201927491173449e-01  6.3201928499345450e-01  6.3201929492613362e-01  6.3201930468584333e-01  6.3201931424907154e-01  6.3201932359277935e-01  6.3201933269445698e-01  6.3201934153217765e-01  6.3201935008465038e-01  6.3201935833127143e-01  6.3201936625217381e-01  6.3201937382827544e-01  6.3201938104132449e-01  6.3201938787394407e-01  6.3201939430967380e-01  6.3201940033300930e-01  6.3201940592943973e-01  6.3201941108548265e-01  6.3201941578871679e-01  6.3201942002781131e-01  6.3201942379255394e-01  6.3201942707387504e-01  6.3201942986386939e-01  6.3201943215581580e-01  6.3201943394419269e-01  6.3201943522469195e-01  6.3201943599422861e-01  6.3201943625082446e-01  6.3201900058623472e-01  6.3201900084283757e-01  6.3201900161249436e-01  6.3201900289319313e-01  6.3201900468184880e-01  6.3201900697415225e-01  6.3201900976458125e-01  6.3201901304641372e-01  6.3201901681174333e-01  6.3201902105149910e-01  6.3201902575546720e-01  6.3201903091231548e-01  6.3201903650962077e-01  6.3201904253389873e-01  6.3201904897063632e-01  6.3201905580432727e-01  6.3201906301850852e-01  6.3201907059580065e-01  6.3201907851794936e-01  6.3201908676586971e-01  6.3201909531969169e-01  6.3201910415880869e-01  6.3201911326192639e-01  6.3201912260711490e-01  6.3201913217186079e-01  6.3201914193312181e-01  6.3201915186738233e-01  6.3201916195071006e-01  6.3201917215881320e-01  6.3201918246709976e-01  6.3201919285073616e-01  6.3201920328470740e-01  6.3201921374387704e-01  6.3201922420304812e-01  6.3201923463702359e-01  6.3201924502066698e-01  6.3201925532896330e-01  6.3201926553707888e-01  6.3201927562042137e-01  6.3201928555469911e-01  6.3201929531597945e-01  6.3201930488074665e-01  6.3201931422595836e-01  6.3201932332910082e-01  6.3201933216824380e-01  6.3201934072209298e-01  6.3201934897004119e-01  6.3201935689221844e-01  6.3201936446953932e-01  6.3201937168374922e-01  6.3201937851746859e-01  6.3201938495423415e-01  6.3201939097853910e-01  6.3201939657587036e-01  6.3201940173274318e-01  6.3201940643673427e-01  6.3201941067651113e-01  6.3201941444185972e-01  6.3201941772370906e-01  6.3201942051415272e-01  6.3201942280646817e-01  6.3201942459513327e-01  6.3201942587583881e-01  6.3201942664549970e-01  6.3201942690210622e-01  6.3201898912256815e-01  6.3201898937919054e-01  6.3201899014899821e-01  6.3201899142994800e-01  6.3201899321895394e-01  6.3201899551170659e-01  6.3201899830268227e-01  6.3201900158515756e-01  6.3201900535122468e-01  6.3201900959181090e-01  6.3201901429670038e-01  6.3201901945455863e-01  6.3201902505296026e-01  6.3201903107841817e-01  6.3201903751641664e-01  6.3201904435144596e-01  6.3201905156704008e-01  6.3201905914581635e-01  6.3201906706951694e-01  6.3201907531905266e-01  6.3201908387454997e-01  6.3201909271539813e-01  6.3201910182029886e-01  6.3201911116731768e-01  6.3201912073393707e-01  6.3201913049711000e-01  6.3201914043331631e-01  6.3201915051861901e-01  6.3201916072872166e-01  6.3201917103902727e-01  6.3201918142469748e-01  6.3201919186071243e-01  6.3201920232193076e-01  6.3201921278315043e-01  6.3201922321916970e-01  6.3201923360484691e-01  6.3201924391516240e-01  6.3201925412527749e-01  6.3201926421059496e-01  6.3201927414681858e-01  6.3201928391001105e-01  6.3201929347665187e-01  6.3201930282369401e-01  6.3201931192861960e-01  6.3201932076949396e-01  6.3201932932501870e-01  6.3201933757458251e-01  6.3201934549831151e-01  6.3201935307711676e-01  6.3201936029273986e-01  6.3201936712779783e-01  6.3201937356582427e-01  6.3201937959130938e-01  6.3201938518973699e-01  6.3201939034762011e-01  6.3201939505253268e-01  6.3201939929314033e-01  6.3201940305922655e-01  6.3201940634171883e-01  6.3201940913270926e-01  6.3201941142547402e-01  6.3201941321448962e-01  6.3201941449544630e-01  6.3201941526525807e-01  6.3201941552188468e-01  6.3201897564011011e-01  6.3201897589676159e-01  6.3201897666674645e-01  6.3201897794799144e-01  6.3201897973740961e-01  6.3201898203069029e-01  6.3201898482230878e-01  6.3201898810554002e-01  6.3201899187247468e-01  6.3201899611403745e-01  6.3201900082001061e-01  6.3201900597905691e-01  6.3201901157874785e-01  6.3201901760559343e-01  6.3201902404507460e-01  6.3201903088167799e-01  6.3201903809893401e-01  6.3201904567945577e-01  6.3201905360498112e-01  6.3201906185641676e-01  6.3201907041388461e-01  6.3201907925676903e-01  6.3201908836376663e-01  6.3201909771293818e-01  6.3201910728176081e-01  6.3201911704718239e-01  6.3201912698567719e-01  6.3201913707330259e-01  6.3201914728575681e-01  6.3201915759843696e-01  6.3201916798649938e-01  6.3201917842491784e-01  6.3201918888854558e-01  6.3201919935217477e-01  6.3201920979059756e-01  6.3201922017866696e-01  6.3201923049135700e-01  6.3201924070382376e-01  6.3201925079146415e-01  6.3201926072997638e-01  6.3201927049541740e-01  6.3201928006426178e-01  6.3201928941345675e-01  6.3201929852047944e-01  6.3201930736339029e-01  6.3201931592088556e-01  6.3201932417234952e-01  6.3201933209790373e-01  6.3201933967845458e-01  6.3201934689573969e-01  6.3201935373237206e-01  6.3201936017188143e-01  6.3201936619875443e-01  6.3201937179847167e-01  6.3201937695754284e-01  6.3201938166353921e-01  6.3201938590512363e-01  6.3201938967207749e-01  6.3201939295532605e-01  6.3201939574695942e-01  6.3201939804025253e-01  6.3201939982968036e-01  6.3201940111093213e-01  6.3201940188092132e-01  6.3201940213757724e-01  6.3201896017134296e-01  6.3201896042803252e-01  6.3201896119822087e-01  6.3201896247980427e-01  6.3201896426969528e-01  6.3201896656358192e-01  6.3201896935593804e-01  6.3201897264003659e-01  6.3201897640796634e-01  6.3201898065064976e-01  6.3201898535786616e-01  6.3201899051827537e-01  6.3201899611944556e-01  6.3201900214788331e-01  6.3201900858906568e-01  6.3201901542747529e-01  6.3201902264663790e-01  6.3201903022916217e-01  6.3201903815678129e-01  6.3201904641039675e-01  6.3201905497012534e-01  6.3201906381534578e-01  6.3201907292474935e-01  6.3201908227639092e-01  6.3201909184774130e-01  6.3201910161574271e-01  6.3201911155686308e-01  6.3201912164715357e-01  6.3201913186230563e-01  6.3201914217771038e-01  6.3201915256851715e-01  6.3201916300969341e-01  6.3201917347608549e-01  6.3201918394247902e-01  6.3201919438365961e-01  6.3201920477447349e-01  6.3201921508988812e-01  6.3201922530505283e-01  6.3201923539535843e-01  6.3201924533649634e-01  6.3201925510451751e-01  6.3201926467588976e-01  6.3201927402755487e-01  6.3201928313698374e-01  6.3201929198223084e-01  6.3201930054198685e-01  6.3201930879563106e-01  6.3201931672327927e-01  6.3201932430583285e-01  6.3201933152502487e-01  6.3201933836346358e-01  6.3201934480467437e-01  6.3201935083313976e-01  6.3201935643433649e-01  6.3201936159477079e-01  6.3201936630201072e-01  6.3201937054471580e-01  6.3201937431266497e-01  6.3201937759678117e-01  6.3201938038915229e-01  6.3201938268305136e-01  6.3201938447295203e-01  6.3201938575454253e-01  6.3201938652473511e-01  6.3201938678142988e-01  6.3201894275353421e-01  6.3201894301027095e-01  6.3201894378068846e-01  6.3201894506265299e-01  6.3201894685307636e-01  6.3201894914764523e-01  6.3201895194083169e-01  6.3201895522590701e-01  6.3201895899495730e-01  6.3201896323890250e-01  6.3201896794751866e-01  6.3201897310946242e-01  6.3201897871229840e-01  6.3201898474252893e-01  6.3201899118562666e-01  6.3201899802606998e-01  6.3201900524737953e-01  6.3201901283215867e-01  6.3201902076213534e-01  6.3201902901820539e-01  6.3201903758047939e-01  6.3201904642833040e-01  6.3201905554044302e-01  6.3201906489486548e-01  6.3201907446906247e-01  6.3201908423996866e-01  6.3201909418404556e-01  6.3201910427733665e-01  6.3201911449552683e-01  6.3201912481399924e-01  6.3201913520789610e-01  6.3201914565217754e-01  6.3201915612168236e-01  6.3201916659118851e-01  6.3201917703547428e-01  6.3201918742937846e-01  6.3201919774786086e-01  6.3201920796606370e-01  6.3201921805937022e-01  6.3201922800346477e-01  6.3201923777439095e-01  6.3201924734860992e-01  6.3201925670305625e-01  6.3201926581519430e-01  6.3201927466307206e-01  6.3201928322537415e-01  6.3201929148147284e-01  6.3201929941147883e-01  6.3201930699628772e-01  6.3201931421762680e-01  6.3201932105809944e-01  6.3201932750122602e-01  6.3201933353148432e-01  6.3201933913434716e-01  6.3201934429631634e-01  6.3201934900495615e-01  6.3201935324892333e-01  6.3201935701799328e-01  6.3201936030308636e-01  6.3201936309628803e-01  6.3201936539086934e-01  6.3201936718130258e-01  6.3201936846327433e-01  6.3201936923369617e-01  6.3201936949043835e-01  6.3201892342864674e-01  6.3201892368543988e-01  6.3201892445611152e-01  6.3201892573849905e-01  6.3201892752951294e-01  6.3201892982483876e-01  6.3201893261894659e-01  6.3201893590510561e-01  6.3201893967539891e-01  6.3201894392074398e-01  6.3201894863091335e-01  6.3201895379455975e-01  6.3201895939924380e-01  6.3201896543146330e-01  6.3201897187668632e-01  6.3201897871938584e-01  6.3201898594307737e-01  6.3201899353035829e-01  6.3201900146295065e-01  6.3201900972174396e-01  6.3201901828684226e-01  6.3201902713761171e-01  6.3201903625272982e-01  6.3201904561023792e-01  6.3201905518759294e-01  6.3201906496172222e-01  6.3201907490907905e-01  6.3201908500569959e-01  6.3201909522726019e-01  6.3201910554913643e-01  6.3201911594646176e-01  6.3201912639418834e-01  6.3201913686714661e-01  6.3201914734010622e-01  6.3201915778783724e-01  6.3201916818516990e-01  6.3201917850705625e-01  6.3201918872862972e-01  6.3201919882526569e-01  6.3201920877264040e-01  6.3201921854678977e-01  6.3201922812416700e-01  6.3201923748169919e-01  6.3201924659684305e-01  6.3201925544763959e-01  6.3201926401276609e-01  6.3201927227158861e-01  6.3201928020421039e-01  6.3201928779152128e-01  6.3201929501524268e-01  6.3201930185797184e-01  6.3201930830322395e-01  6.3201931433547154e-01  6.3201931994018268e-01  6.3201932510385483e-01  6.3201932981404807e-01  6.3201933405941524e-01  6.3201933782972874e-01  6.3201934111590552e-01  6.3201934391002879e-01  6.3201934620536715e-01  6.3201934799639103e-01  6.3201934927878578e-01  6.3201935004946175e-01  6.3201935030626077e-01  6.3201890224323876e-01  6.3201890250009696e-01  6.3201890327104737e-01  6.3201890455389842e-01  6.3201890634555979e-01  6.3201890864171517e-01  6.3201891143683320e-01  6.3201891472418004e-01  6.3201891849583636e-01  6.3201892274271598e-01  6.3201892745458788e-01  6.3201893262010089e-01  6.3201893822681099e-01  6.3201894426121097e-01  6.3201895070876379e-01  6.3201895755393689e-01  6.3201896478023967e-01  6.3201897237026328e-01  6.3201898030572301e-01  6.3201898856750183e-01  6.3201899713569620e-01  6.3201900598966509e-01  6.3201901510807823e-01  6.3201902446896896e-01  6.3201903404978599e-01  6.3201904382744856e-01  6.3201905377840140e-01  6.3201906387867168e-01  6.3201907410392733e-01  6.3201908442953481e-01  6.3201909483061880e-01  6.3201910528212213e-01  6.3201911575886638e-01  6.3201912623561218e-01  6.3201913668711995e-01  6.3201914708821127e-01  6.3201915741382897e-01  6.3201916763909749e-01  6.3201917773938354e-01  6.3201918769035437e-01  6.3201919746803736e-01  6.3201920704887682e-01  6.3201921640979197e-01  6.3201922552823109e-01  6.3201923438222718e-01  6.3201924295045020e-01  6.3201925121225844e-01  6.3201925914774804e-01  6.3201926673780207e-01  6.3201927396413482e-01  6.3201928080933778e-01  6.3201928725692003e-01  6.3201929329134865e-01  6.3201929889808595e-01  6.3201930406362483e-01  6.3201930877552115e-01  6.3201931302242320e-01  6.3201931679409973e-01  6.3201932008146466e-01  6.3201932287659801e-01  6.3201932517276638e-01  6.3201932696443786e-01  6.3201932824729623e-01  6.3201932901825086e-01  6.3201932927511550e-01  6.3201887924834987e-01  6.3201887950528213e-01  6.3201888027653486e-01  6.3201888155988906e-01  6.3201888335225309e-01  6.3201888564930908e-01  6.3201888844552345e-01  6.3201889173415959e-01  6.3201889550729529e-01  6.3201889975584058e-01  6.3201890446956055e-01  6.3201890963709961e-01  6.3201891524600862e-01  6.3201892128277548e-01  6.3201892773285717e-01  6.3201893458071490e-01  6.3201894180985185e-01  6.3201894940285253e-01  6.3201895734142466e-01  6.3201896560644377e-01  6.3201897417799890e-01  6.3201898303544024e-01  6.3201899215742996e-01  6.3201900152199209e-01  6.3201901110656700e-01  6.3201902088806450e-01  6.3201903084292033e-01  6.3201904094715233e-01  6.3201905117641854e-01  6.3201906150607601e-01  6.3201907191123952e-01  6.3201908236684234e-01  6.3201909284769597e-01  6.3201910332855094e-01  6.3201911378415832e-01  6.3201912418932937e-01  6.3201913451899705e-01  6.3201914474827647e-01  6.3201915485252425e-01  6.3201916480739828e-01  6.3201917458891643e-01  6.3201918417351399e-01  6.3201919353810088e-01  6.3201920266011669e-01  6.3201921151758589e-01  6.3201922008916978e-01  6.3201922835421864e-01  6.3201923629282120e-01  6.3201924388585229e-01  6.3201925111501989e