<?xml version="1.0"?>
<VTKFile type="UnstructuredGrid"  version="0.1"  >
<UnstructuredGrid>
<Piece  NumberOfPoints="4225" NumberOfCells="8192">
<Points>
<DataArray  type="Float64"  NumberOfComponents="3"  format="ascii">0 0 0  0.015625 0 0  0.03125 0 0  0.046875 0 0  0.0625 0 0  0.078125 0 0  0.09375 0 0  0.109375 0 0  0.125 0 0  0.140625 0 0  0.15625 0 0  0.171875 0 0  0.1875 0 0  0.203125 0 0  0.21875 0 0  0.234375 0 0  0.25 0 0  0.265625 0 0  0.28125 0 0  0.296875 0 0  0.3125 0 0  0.328125 0 0  0.34375 0 0  0.359375 0 0  0.375 0 0  0.390625 0 0  0.40625 0 0  0.421875 0 0  0.4375 0 0  0.453125 0 0  0.46875 0 0  0.484375 0 0  0.5 0 0  0.515625 0 0  0.53125 0 0  0.546875 0 0  0.5625 0 0  0.578125 0 0  0.59375 0 0  0.609375 0 0  0.625 0 0  0.640625 0 0  0.65625 0 0  0.671875 0 0  0.6875 0 0  0.703125 0 0  0.71875 0 0  0.734375 0 0  0.75 0 0  0.765625 0 0  0.78125 0 0  0.796875 0 0  0.8125 0 0  0.828125 0 0  0.84375 0 0  0.859375 0 0  0.875 0 0  0.890625 0 0  0.90625 0 0  0.921875 0 0  0.9375 0 0  0.953125 0 0  0.96875 0 0  0.984375 0 0  1 0 0  0 0.015625 0  0.015625 0.015625 0  0.03125 0.015625 0  0.046875 0.015625 0  0.0625 0.015625 0  0.078125 0.015625 0  0.09375 0.015625 0  0.109375 0.015625 0  0.125 0.015625 0  0.140625 0.015625 0  0.15625 0.015625 0  0.171875 0.015625 0  0.1875 0.015625 0  0.203125 0.015625 0  0.21875 0.015625 0  0.234375 0.015625 0  0.25 0.015625 0  0.265625 0.015625 0  0.28125 0.015625 0  0.296875 0.015625 0  0.3125 0.015625 0  0.328125 0.015625 0  0.34375 0.015625 0  0.359375 0.015625 0  0.375 0.015625 0  0.390625 0.015625 0  0.40625 0.015625 0  0.421875 0.015625 0  0.4375 0.015625 0  0.453125 0.015625 0  0.46875 0.015625 0  0.484375 0.015625 0  0.5 0.015625 0  0.515625 0.015625 0  0.53125 0.015625 0  0.546875 0.015625 0  0.5625 0.015625 0  0.578125 0.015625 0  0.59375 0.015625 0  0.609375 0.015625 0  0.625 0.015625 0  0.640625 0.015625 0  0.65625 0.015625 0  0.671875 0.015625 0  0.6875 0.015625 0  0.703125 0.015625 0  0.71875 0.015625 0  0.734375 0.015625 0  0.75 0.015625 0  0.765625 0.015625 0  0.78125 0.015625 0  0.796875 0.015625 0  0.8125 0.015625 0  0.828125 0.015625 0  0.84375 0.015625 0  0.859375 0.015625 0  0.875 0.015625 0  0.890625 0.015625 0  0.90625 0.015625 0  0.921875 0.015625 0  0.9375 0.015625 0  0.953125 0.015625 0  0.96875 0.015625 0  0.984375 0.015625 0  1 0.015625 0  0 0.03125 0  0.015625 0.03125 0  0.03125 0.03125 0  0.046875 0.03125 0  0.0625 0.03125 0  0.078125 0.03125 0  0.09375 0.03125 0  0.109375 0.03125 0  0.125 0.03125 0  0.140625 0.03125 0  0.15625 0.03125 0  0.171875 0.03125 0  0.1875 0.03125 0  0.203125 0.03125 0  0.21875 0.03125 0  0.234375 0.03125 0  0.25 0.03125 0  0.265625 0.03125 0  0.28125 0.03125 0  0.296875 0.03125 0  0.3125 0.03125 0  0.328125 0.03125 0  0.34375 0.03125 0  0.359375 0.03125 0  0.375 0.03125 0  0.390625 0.03125 0  0.40625 0.03125 0  0.421875 0.03125 0  0.4375 0.03125 0  0.453125 0.03125 0  0.46875 0.03125 0  0.484375 0.03125 0  0.5 0.03125 0  0.515625 0.03125 0  0.53125 0.03125 0  0.546875 0.03125 0  0.5625 0.03125 0  0.578125 0.03125 0  0.59375 0.03125 0  0.609375 0.03125 0  0.625 0.03125 0  0.640625 0.03125 0  0.65625 0.03125 0  0.671875 0.03125 0  0.6875 0.03125 0  0.703125 0.03125 0  0.71875 0.03125 0  0.734375 0.03125 0  0.75 0.03125 0  0.765625 0.03125 0  0.78125 0.03125 0  0.796875 0.03125 0  0.8125 0.03125 0  0.828125 0.03125 0  0.84375 0.03125 0  0.859375 0.03125 0  0.875 0.03125 0  0.890625 0.03125 0  0.90625 0.03125 0  0.921875 0.03125 0  0.9375 0.03125 0  0.953125 0.03125 0  0.96875 0.03125 0  0.984375 0.03125 0  1 0.03125 0  0 0.046875 0  0.015625 0.046875 0  0.03125 0.046875 0  0.046875 0.046875 0  0.0625 0.046875 0  0.078125 0.046875 0  0.09375 0.046875 0  0.109375 0.046875 0  0.125 0.046875 0  0.140625 0.046875 0  0.15625 0.046875 0  0.171875 0.046875 0  0.1875 0.046875 0  0.203125 0.046875 0  0.21875 0.046875 0  0.234375 0.046875 0  0.25 0.046875 0  0.265625 0.046875 0  0.28125 0.046875 0  0.296875 0.046875 0  0.3125 0.046875 0  0.328125 0.046875 0  0.34375 0.046875 0  0.359375 0.046875 0  0.375 0.046875 0  0.390625 0.046875 0  0.40625 0.046875 0  0.421875 0.046875 0  0.4375 0.046875 0  0.453125 0.046875 0  0.46875 0.046875 0  0.484375 0.046875 0  0.5 0.046875 0  0.515625 0.046875 0  0.53125 0.046875 0  0.546875 0.046875 0  0.5625 0.046875 0  0.578125 0.046875 0  0.59375 0.046875 0  0.609375 0.046875 0  0.625 0.046875 0  0.640625 0.046875 0  0.65625 0.046875 0  0.671875 0.046875 0  0.6875 0.046875 0  0.703125 0.046875 0  0.71875 0.046875 0  0.734375 0.046875 0  0.75 0.046875 0  0.765625 0.046875 0  0.78125 0.046875 0  0.796875 0.046875 0  0.8125 0.046875 0  0.828125 0.046875 0  0.84375 0.046875 0  0.859375 0.046875 0  0.875 0.046875 0  0.890625 0.046875 0  0.90625 0.046875 0  0.921875 0.046875 0  0.9375 0.046875 0  0.953125 0.046875 0  0.96875 0.046875 0  0.984375 0.046875 0  1 0.046875 0  0 0.0625 0  0.015625 0.0625 0  0.03125 0.0625 0  0.046875 0.0625 0  0.0625 0.0625 0  0.078125 0.0625 0  0.09375 0.0625 0  0.109375 0.0625 0  0.125 0.0625 0  0.140625 0.0625 0  0.15625 0.0625 0  0.171875 0.0625 0  0.1875 0.0625 0  0.203125 0.0625 0  0.21875 0.0625 0  0.234375 0.0625 0  0.25 0.0625 0  0.265625 0.0625 0  0.28125 0.0625 0  0.296875 0.0625 0  0.3125 0.0625 0  0.328125 0.0625 0  0.34375 0.0625 0  0.359375 0.0625 0  0.375 0.0625 0  0.390625 0.0625 0  0.40625 0.0625 0  0.421875 0.0625 0  0.4375 0.0625 0  0.453125 0.0625 0  0.46875 0.0625 0  0.484375 0.0625 0  0.5 0.0625 0  0.515625 0.0625 0  0.53125 0.0625 0  0.546875 0.0625 0  0.5625 0.0625 0  0.578125 0.0625 0  0.59375 0.0625 0  0.609375 0.0625 0  0.625 0.0625 0  0.640625 0.0625 0  0.65625 0.0625 0  0.671875 0.0625 0  0.6875 0.0625 0  0.703125 0.0625 0  0.71875 0.0625 0  0.734375 0.0625 0  0.75 0.0625 0  0.765625 0.0625 0  0.78125 0.0625 0  0.796875 0.0625 0  0.8125 0.0625 0  0.828125 0.0625 0  0.84375 0.0625 0  0.859375 0.0625 0  0.875 0.0625 0  0.890625 0.0625 0  0.90625 0.0625 0  0.921875 0.0625 0  0.9375 0.0625 0  0.953125 0.0625 0  0.96875 0.0625 0  0.984375 0.0625 0  1 0.0625 0  0 0.078125 0  0.015625 0.078125 0  0.03125 0.078125 0  0.046875 0.078125 0  0.0625 0.078125 0  0.078125 0.078125 0  0.09375 0.078125 0  0.109375 0.078125 0  0.125 0.078125 0  0.140625 0.078125 0  0.15625 0.078125 0  0.171875 0.078125 0  0.1875 0.078125 0  0.203125 0.078125 0  0.21875 0.078125 0  0.234375 0.078125 0  0.25 0.078125 0  0.265625 0.078125 0  0.28125 0.078125 0  0.296875 0.078125 0  0.3125 0.078125 0  0.328125 0.078125 0  0.34375 0.078125 0  0.359375 0.078125 0  0.375 0.078125 0  0.390625 0.078125 0  0.40625 0.078125 0  0.421875 0.078125 0  0.4375 0.078125 0  0.453125 0.078125 0  0.46875 0.078125 0  0.484375 0.078125 0  0.5 0.078125 0  0.515625 0.078125 0  0.53125 0.078125 0  0.546875 0.078125 0  0.5625 0.078125 0  0.578125 0.078125 0  0.59375 0.078125 0  0.609375 0.078125 0  0.625 0.078125 0  0.640625 0.078125 0  0.65625 0.078125 0  0.671875 0.078125 0  0.6875 0.078125 0  0.703125 0.078125 0  0.71875 0.078125 0  0.734375 0.078125 0  0.75 0.078125 0  0.765625 0.078125 0  0.78125 0.078125 0  0.796875 0.078125 0  0.8125 0.078125 0  0.828125 0.078125 0  0.84375 0.078125 0  0.859375 0.078125 0  0.875 0.078125 0  0.890625 0.078125 0  0.90625 0.078125 0  0.921875 0.078125 0  0.9375 0.078125 0  0.953125 0.078125 0  0.96875 0.078125 0  0.984375 0.078125 0  1 0.078125 0  0 0.09375 0  0.015625 0.09375 0  0.03125 0.09375 0  0.046875 0.09375 0  0.0625 0.09375 0  0.078125 0.09375 0  0.09375 0.09375 0  0.109375 0.09375 0  0.125 0.09375 0  0.140625 0.09375 0  0.15625 0.09375 0  0.171875 0.09375 0  0.1875 0.09375 0  0.203125 0.09375 0  0.21875 0.09375 0  0.234375 0.09375 0  0.25 0.09375 0  0.265625 0.09375 0  0.28125 0.09375 0  0.296875 0.09375 0  0.3125 0.09375 0  0.328125 0.09375 0  0.34375 0.09375 0  0.359375 0.09375 0  0.375 0.09375 0  0.390625 0.09375 0  0.40625 0.09375 0  0.421875 0.09375 0  0.4375 0.09375 0  0.453125 0.09375 0  0.46875 0.09375 0  0.484375 0.09375 0  0.5 0.09375 0  0.515625 0.09375 0  0.53125 0.09375 0  0.546875 0.09375 0  0.5625 0.09375 0  0.578125 0.09375 0  0.59375 0.09375 0  0.609375 0.09375 0  0.625 0.09375 0  0.640625 0.09375 0  0.65625 0.09375 0  0.671875 0.09375 0  0.6875 0.09375 0  0.703125 0.09375 0  0.71875 0.09375 0  0.734375 0.09375 0  0.75 0.09375 0  0.765625 0.09375 0  0.78125 0.09375 0  0.796875 0.09375 0  0.8125 0.09375 0  0.828125 0.09375 0  0.84375 0.09375 0  0.859375 0.09375 0  0.875 0.09375 0  0.890625 0.09375 0  0.90625 0.09375 0  0.921875 0.09375 0  0.9375 0.09375 0  0.953125 0.09375 0  0.96875 0.09375 0  0.984375 0.09375 0  1 0.09375 0  0 0.109375 0  0.015625 0.109375 0  0.03125 0.109375 0  0.046875 0.109375 0  0.0625 0.109375 0  0.078125 0.109375 0  0.09375 0.109375 0  0.109375 0.109375 0  0.125 0.109375 0  0.140625 0.109375 0  0.15625 0.109375 0  0.171875 0.109375 0  0.1875 0.109375 0  0.203125 0.109375 0  0.21875 0.109375 0  0.234375 0.109375 0  0.25 0.109375 0  0.265625 0.109375 0  0.28125 0.109375 0  0.296875 0.109375 0  0.3125 0.109375 0  0.328125 0.109375 0  0.34375 0.109375 0  0.359375 0.109375 0  0.375 0.109375 0  0.390625 0.109375 0  0.40625 0.109375 0  0.421875 0.109375 0  0.4375 0.109375 0  0.453125 0.109375 0  0.46875 0.109375 0  0.484375 0.109375 0  0.5 0.109375 0  0.515625 0.109375 0  0.53125 0.109375 0  0.546875 0.109375 0  0.5625 0.109375 0  0.578125 0.109375 0  0.59375 0.109375 0  0.609375 0.109375 0  0.625 0.109375 0  0.640625 0.109375 0  0.65625 0.109375 0  0.671875 0.109375 0  0.6875 0.109375 0  0.703125 0.109375 0  0.71875 0.109375 0  0.734375 0.109375 0  0.75 0.109375 0  0.765625 0.109375 0  0.78125 0.109375 0  0.796875 0.109375 0  0.8125 0.109375 0  0.828125 0.109375 0  0.84375 0.109375 0  0.859375 0.109375 0  0.875 0.109375 0  0.890625 0.109375 0  0.90625 0.109375 0  0.921875 0.109375 0  0.9375 0.109375 0  0.953125 0.109375 0  0.96875 0.109375 0  0.984375 0.109375 0  1 0.109375 0  0 0.125 0  0.015625 0.125 0  0.03125 0.125 0  0.046875 0.125 0  0.0625 0.125 0  0.078125 0.125 0  0.09375 0.125 0  0.109375 0.125 0  0.125 0.12
[...]
<PointData  Scalars="f_12"> 
<DataArray  type="Float64"  Name="f_12"  format="ascii">6.3201984375968634e-01  6.3201984432547298e-01  6.3201984602159100e-01  6.3201984884393148e-01  6.3201985278569373e-01  6.3201985783738113e-01  6.3201986398682386e-01  6.3201987121920766e-01  6.3201987951710925e-01  6.3201988886053895e-01  6.3201989922698798e-01  6.3201991059148332e-01  6.3201992292664744e-01  6.3201993620276464e-01  6.3201995038785219e-01  6.3201996544773786e-01  6.3201998134614168e-01  6.3201999804476394e-01  6.3202001550337672e-01  6.3202003367992154e-01  6.3202005253061033e-01  6.3202007201003096e-01  6.3202009207125620e-01  6.3202011266595759e-01  6.3202013374452137e-01  6.3202015525616806e-01  6.3202017714907455e-01  6.3202019937049947e-01  6.3202022186690987e-01  6.3202024458411021e-01  6.3202026746737316e-01  6.3202029046157115e-01  6.3202031351130894e-01  6.3202033656105838e-01  6.3202035955528979e-01  6.3202038243860847e-01  6.3202040515588609e-01  6.3202042765239475e-01  6.3202044987393768e-01  6.3202047176698117e-01  6.3202049327878240e-01  6.3202051435751716e-01  6.3202053495240407e-01  6.3202055501382792e-01  6.3202057449345816e-01  6.3202059334436600e-01  6.3202061152113731e-01  6.3202062897998179e-01  6.3202064567883898e-01  6.3202066157747872e-01  6.3202067663759942e-01  6.3202069082291901e-01  6.3202070409926303e-01  6.3202071643464675e-01  6.3202072779935259e-01  6.3202073816600146e-01  6.3202074750961812e-01  6.3202075580769257e-01  6.3202076304023336e-01  6.3202076918981609e-01  6.3202077424162528e-01  6.3202077818348978e-01  6.3202078100591230e-01  6.3202078270209017e-01  6.3202078326790179e-01  6.3201984140024303e-01  6.3201984196602401e-01  6.3201984366221542e-01  6.3201984648466425e-01  6.3201985042657038e-01  6.3201985547843709e-01  6.3201986162809443e-01  6.3201986886072758e-01  6.3201987715891261e-01  6.3201988650265917e-01  6.3201989686945770e-01  6.3201990823433440e-01  6.3201992056991085e-01  6.3201993384647026e-01  6.3201994803202888e-01  6.3201996309241337e-01  6.3201997899134255e-01  6.3201999569051537e-01  6.3202001314970269e-01  6.3202003132684470e-01  6.3202005017815166e-01  6.3202006965821000e-01  6.3202008972009138e-01  6.3202011031546512e-01  6.3202013139471636e-01  6.3202015290706359e-01  6.3202017480068218e-01  6.3202019702282919e-01  6.3202021951996978e-01  6.3202024223790654e-01  6.3202026512191045e-01  6.3202028811685218e-01  6.3202031116733492e-01  6.3202033421782799e-01  6.3202035721280092e-01  6.3202038009685668e-01  6.3202040281486516e-01  6.3202042531209657e-01  6.3202044753435294e-01  6.3202046942809820e-01  6.3202049094058821e-01  6.3202051201999698e-01  6.3202053261554170e-01  6.3202055267760526e-01  6.3202057215785579e-01  6.3202059100936303e-01  6.3202060918671121e-01  6.3202062664610881e-01  6.3202064334549379e-01  6.3202065924463524e-01  6.3202067430522979e-01  6.3202068849099446e-01  6.3202070176775371e-01  6.3202071410352201e-01  6.3202072546858068e-01  6.3202073583554941e-01  6.3202074517945284e-01  6.3202075347777986e-01  6.3202076071053859e-01  6.3202076686030406e-01  6.3202077191226047e-01  6.3202077585423644e-01  6.3202077867673467e-01  6.3202078037295417e-01  6.3202078093874547e-01  6.3201983432754383e-01  6.3201983489331037e-01  6.3201983658966898e-01  6.3201983941239226e-01  6.3201984335468053e-01  6.3201984840703662e-01  6.3201985455728926e-01  6.3201986179062242e-01  6.3201987008961069e-01  6.3201987943426163e-01  6.3201988980206347e-01  6.3201990116804008e-01  6.3201991350481035e-01  6.3201992678265473e-01  6.3201994096958647e-01  6.3201995603142846e-01  6.3201997193189652e-01  6.3201998863268538e-01  6.3202000609356257e-01  6.3202002427246384e-01  6.3202004312559557e-01  6.3202006260753940e-01  6.3202008267136234e-01  6.3202010326872970e-01  6.3202012435002108e-01  6.3202014586445066e-01  6.3202016776018843e-01  6.3202018998448639e-01  6.3202021248380458e-01  6.3202023520394046e-01  6.3202025809015949e-01  6.3202028108732711e-01  6.3202030414004118e-01  6.3202032719276569e-01  6.3202035018996450e-01  6.3202037307623549e-01  6.3202039579644320e-01  6.3202041829585265e-01  6.3202044052026018e-01  6.3202046241612497e-01  6.3202048393069765e-01  6.3202050501214713e-01  6.3202052560968580e-01  6.3202054567369159e-01  6.3202056515582805e-01  6.3202058400916039e-01  6.3202060218826839e-01  6.3202061964935652e-01  6.3202063635035832e-01  6.3202065225103909e-01  6.3202066731309181e-01  6.3202068150023005e-01  6.3202069477827483e-01  6.3202070711523750e-01  6.3202071848139652e-01  6.3202072884936911e-01  6.3202073819417726e-01  6.3202074649330808e-01  6.3202075372676725e-01  6.3202075987712858e-01  6.3202076492957460e-01  6.3202076887193315e-01  6.3202077169470672e-01  6.3202077339109519e-01  6.3202077395687517e-01  6.3201982255860822e-01  6.3201982312439553e-01  6.3201982482102870e-01  6.3201982764420761e-01  6.3201983158713126e-01  6.3201983664030137e-01  6.3201984279154466e-01  6.3201985002604277e-01  6.3201985832636742e-01  6.3201986767252305e-01  6.3201987804199455e-01  6.3201988940980136e-01  6.3201990174855838e-01  6.3201991502854094e-01  6.3201992921775707e-01  6.3201994428202457e-01  6.3201996018505302e-01  6.3201997688853151e-01  6.3201999435222045e-01  6.3202001253404927e-01  6.3202003139021701e-01  6.3202005087529822e-01  6.3202007094235224e-01  6.3202009154303673e-01  6.3202011262772329e-01  6.3202013414561764e-01  6.3202015604488160e-01  6.3202017827275891e-01  6.3202020077570065e-01  6.3202022349949571e-01  6.3202024638940069e-01  6.3202026939027212e-01  6.3202029244669911e-01  6.3202031550313653e-01  6.3202033850403938e-01  6.3202036139399653e-01  6.3202038411786376e-01  6.3202040662089709e-01  6.3202042884888443e-01  6.3202045074827617e-01  6.3202047226631419e-01  6.3202049335115951e-01  6.3202051395201575e-01  6.3202053401925362e-01  6.3202055350452846e-01  6.3202057236089770e-01  6.3202059054293402e-01  6.3202060800683479e-01  6.3202062471052711e-01  6.3202064061376928e-01  6.3202065567824839e-01  6.3202066986767202e-01  6.3202068314785587e-01  6.3202069548680606e-01  6.3202070685479617e-01  6.3202071722443909e-01  6.3202072657075292e-01  6.3202073487122068e-01  6.3202074210584558e-01  6.3202074825719812e-01  6.3202075331045870e-01  6.3202075725345352e-01  6.3202076007668329e-01  6.3202076177334710e-01  6.3202076233915006e-01  6.3201980612179320e-01  6.3201980668763769e-01  6.3201980838465310e-01  6.3201981120846740e-01  6.3201981515227823e-01  6.3201982020658487e-01  6.3201982635921161e-01  6.3201983359533664e-01  6.3201984189752780e-01  6.3201985124578519e-01  6.3201986161758839e-01  6.3201987298795137e-01  6.3201988532948294e-01  6.3201989861245167e-01  6.3201991280485847e-01  6.3201992787251338e-01  6.3201994377911797e-01  6.3201996048635245e-01  6.3201997795396858e-01  6.3201999613988591e-01  6.3202001500029392e-01  6.3202003448975685e-01  6.3202005456132371e-01  6.3202007516664083e-01  6.3202009625606892e-01  6.3202011777880229e-01  6.3202013968299142e-01  6.3202016191586730e-01  6.3202018442386976e-01  6.3202020715277529e-01  6.3202023004782826e-01  6.3202025305387277e-01  6.3202027611548517e-01  6.3202029917710800e-01  6.3202032218318405e-01  6.3202034507828941e-01  6.3202036780726767e-01  6.3202039031536228e-01  6.3202041254834906e-01  6.3202043445266642e-01  6.3202045597554446e-01  6.3202047706513220e-01  6.3202049767062241e-01  6.3202051774237400e-01  6.3202053723203167e-01  6.3202055609264240e-01  6.3202057427876868e-01  6.3202059174659786e-01  6.3202060845404728e-01  6.3202062436086692e-01  6.3202063942873488e-01  6.3202065362135040e-01  6.3202066690452163e-01  6.3202067924624750e-01  6.3202069061679511e-01  6.3202070098877083e-01  6.3202071033718732e-01  6.3202071863952258e-01  6.3202072587577529e-01  6.3202073202851206e-01  6.3202073708291018e-01  6.3202074102679262e-01  6.3202074385065854e-01  6.3202074554770504e-01  6.3202074611356707e-01  6.3201978505670509e-01  6.3201978562264294e-01  6.3201978732014763e-01  6.3201979014477594e-01  6.3201979408972331e-01  6.3201979914548645e-01  6.3201980529988599e-01  6.3201981253809603e-01  6.3201982084267927e-01  6.3201983019363006e-01  6.3201984056842142e-01  6.3201985194206045e-01  6.3201986428714774e-01  6.3201987757394351e-01  6.3201989177043927e-01  6.3201990684243559e-01  6.3201992275362318e-01  6.3201993946567137e-01  6.3201995693832036e-01  6.3201997512947761e-01  6.3201999399531983e-01  6.3202001349039827e-01  6.3202003356774838e-01  6.3202005417900264e-01  6.3202007527450754e-01  6.3202009680344262e-01  6.3202011871394315e-01  6.3202014095322567e-01  6.3202016346771384e-01  6.3202018620316891e-01  6.3202020910481926e-01  6.3202023211749314e-01  6.3202025518575111e-01  6.3202027825401974e-01  6.3202030126672537e-01  6.3202032416842868e-01  6.3202034690395692e-01  6.3202036941853790e-01  6.3202039165793211e-01  6.3202041356856198e-01  6.3202043509764283e-01  6.3202045619330849e-01  6.3202047680473716e-01  6.3202049688227346e-01  6.3202051637754819e-01  6.3202053524359481e-01  6.3202055343496244e-01  6.3202057090782604e-01  6.3202058762009106e-01  6.3202060353149536e-01  6.3202061860370617e-01  6.3202063280041232e-01  6.3202064608741226e-01  6.3202065843269539e-01  6.3202066980652039e-01  6.3202068018148583e-01  6.3202068953259694e-01  6.3202069783732551e-01  6.3202070507566421e-01  6.3202071123017478e-01  6.3202071628603018e-01  6.3202072023105016e-01  6.3202072305573065e-01  6.3202072475326687e-01  6.3202072531922437e-01  6.3201975941410193e-01  6.3201975998016946e-01  6.3201976167826945e-01  6.3201976450388841e-01  6.3201976845021923e-01  6.3201977350775529e-01  6.3201977966431278e-01  6.3201978690506067e-01  6.3201979521255591e-01  6.3201980456678519e-01  6.3201981494521420e-01  6.3201982632284115e-01  6.3201983867225675e-01  6.3201985196371124e-01  6.3201986616518480e-01  6.3201988124246566e-01  6.3201989715923212e-01  6.3201991387713996e-01  6.3201993135591550e-01  6.3201994955345109e-01  6.3201996842590846e-01  6.3201998792782266e-01  6.3202000801221281e-01  6.3202002863069440e-01  6.3202004973359638e-01  6.3202007127008075e-01  6.3202009318826446e-01  6.3202011543534542e-01  6.3202013795772882e-01  6.3202016070115641e-01  6.3202018361083789e-01  6.3202020663158187e-01  6.3202022970792948e-01  6.3202025278428786e-01  6.3202027580506404e-01  6.3202029871479870e-01  6.3202032145830034e-01  6.3202034398077744e-01  6.3202036622797098e-01  6.3202038814628525e-01  6.3202040968291673e-01  6.3202043078598102e-01  6.3202045140463858e-01  6.3202047148921670e-01  6.3202049099132895e-01  6.3202050986399250e-01  6.3202052806174069e-01  6.3202054554073273e-01  6.3202056225885950e-01  6.3202057817584467e-01  6.3202059325334203e-01  6.3202060745502808e-01  6.3202062074668841e-01  6.3202063309630185e-01  6.3202064447411632e-01  6.3202065485272119e-01  6.3202066420711245e-01  6.3202067251475424e-01  6.3202067975563225e-01  6.3202068591230198e-01  6.3202069096993119e-01  6.3202069491633528e-01  6.3202069774200720e-01  6.3202069944013917e-01  6.3202070000622823e-01  6.3201972925577232e-01  6.3201972982200549e-01  6.3201973152080582e-01  6.3201973434758951e-01  6.3201973829554725e-01  6.3201974335516820e-01  6.3201974951426376e-01  6.3201975675799638e-01  6.3201976506891611e-01  6.3201977442700141e-01  6.3201978480970866e-01  6.3201979619202564e-01  6.3201980854653195e-01  6.3201982184346539e-01  6.3201983605079315e-01  6.3201985113428927e-01  6.3201986705761692e-01  6.3201988378241658e-01  6.3201990126839735e-01  6.3201991947343472e-01  6.3201993835367198e-01  6.3201995786362586e-01  6.3201997795629572e-01  6.3201999858327740e-01  6.3202001969487909e-01  6.3202004124024203e-01  6.3202006316746195e-01  6.3202008542371479e-01  6.3202010795538344e-01  6.3202013070818774e-01  6.3202015362731456e-01  6.3202017665754973e-01  6.3202019974341161e-01  6.3202022282928438e-01  6.3202024585955208e-01  6.3202026877873263e-01  6.3202029153161166e-01  6.3202031406337511e-01  6.3202033631974175e-01  6.3202035824709357e-01  6.3202037979260517e-01  6.3202040090437117e-01  6.3202042153153071e-01  6.3202044162439053e-01  6.3202046113454458e-01  6.3202048001499023e-01  6.3202049822024242e-01  6.3202051570644224e-01  6.3202053243146283e-01  6.3202054835501187e-01  6.3202056343872681e-01  6.3202057764626918e-01  6.3202059094341090e-01  6.3202060329811716e-01  6.3202061468062387e-01  6.3202062506350876e-01  6.3202063442175782e-01  6.3202064273282588e-01  6.3202064997669016e-01  6.3202065613589908e-01  6.3202066119561429e-01  6.3202066514364630e-01  6.3202066797048373e-01  6.3202066966931625e-01  6.3202067023557273e-01  6.3201969465438601e-01  6.3201969522082047e-01  6.3201969692042370e-01  6.3201969974854411e-01  6.3201970369836824e-01  6.3201970876038127e-01  6.3201971492238840e-01  6.3201972216954572e-01  6.3201973048439430e-01  6.3201973984690374e-01  6.3201975023451940e-01  6.3201976162221729e-01  6.3201977398256437e-01  6.3201978728578390e-01  6.3201980149982817e-01  6.3201981659045514e-01  6.3201983252131089e-01  6.3201984925401733e-01  6.3201986674826482e-01  6.3201988496190920e-01  6.3201990385107254e-01  6.3201992337025037e-01  6.3201994347241974e-01  6.3201996410915362e-01  6.3201998523073688e-01  6.3202000678628634e-01  6.3202002872387364e-01  6.3202005099064940e-01  6.3202007353297140e-01  6.3202009629653388e-01  6.3202011922649737e-01  6.3202014226762204e-01  6.3202016536439976e-01  6.3202018846118846e-01  6.3202021150234600e-01  6.3202023443236410e-01  6.3202025719600197e-01  6.3202027973842001e-01  6.3202030200531101e-01  6.3202032394303176e-01  6.3202034549873187e-01  6.3202036662048133e-01  6.3202038725739518e-01  6.3202040735975695e-01  6.3202042687913718e-01  6.3202044576851169e-01  6.3202046398237333e-01  6.3202048147684264e-01  6.3202049820977302e-01  6.3202051414085247e-01  6.3202052923170104e-01  6.3202054344596270e-01  6.3202055674939306e-01  6.3202056910994253e-01  6.3202058049783261e-01  6.3202059088562801e-01  6.3202060024830320e-01  6.3202060856330211e-01  6.3202061581059266e-01  6.3202062197271480e-01  6.3202062703482331e-01  6.3202063098472272e-01  6.3202063381289730e-01  6.3202063551253351e-01  6.3202063607899317e-01  6.3201965569331786e-01  6.3201965625998868e-01  6.3201965796049642e-01  6.3201966079012140e-01  6.3201966474204718e-01  6.3201966980675350e-01  6.3201967597203934e-01  6.3201968322305246e-01  6.3201969154232507e-01  6.3201970090981596e-01  6.3201971130295853e-01  6.3201972269671536e-01  6.3201973506363873e-01  6.3201974837393649e-01  6.3201976259554360e-01  6.3201977769419981e-01  6.3201979363353189e-01  6.3201981037514154e-01  6.3201982787869748e-01  6.3201984610203299e-01  6.3201986500124718e-01  6.3201988453081104e-01  6.3201990464367674e-01  6.3201992529139162e-01  6.3201994642421400e-01  6.3201996799123350e-01  6.3201998994049424e-01  6.3202001221911885e-01  6.3202003477343649e-01  6.3202005754911228e-01  6.3202008049127800e-01  6.3202010354466409e-01  6.3202012665373297e-01  6.3202014976281307e-01  6.3202017281623235e-01  6.3202019575845336e-01  6.3202021853420576e-01  6.3202024108862054e-01  6.3202026336736195e-01  6.3202028531675802e-01  6.3202030688393041e-01  6.3202032801692098e-01  6.3202034866481827e-01  6.3202036877787904e-01  6.3202038830764840e-01  6.3202040720707642e-01  6.3202042543063230e-01  6.3202044293441295e-01  6.3202045967624942e-01  6.3202047561580843e-01  6.3202049071468935e-01  6.3202050493651662e-01  6.3202051824702821e-01  6.3202053061415686e-01  6.3202054200810842e-01  6.3202055240143329e-01  6.3202056176909227e-01  6.3202057008851709e-01  6.3202057733966543e-01  6.3202058350506785e-01  6.3202058856987098e-01  6.3202059252187326e-01  6.3202059535155330e-01  6.3202059705209424e-01  6.3202059761879215e-01  6.3201961246644800e-01  6.3201961303338960e-01  6.3201961473490076e-01  6.3201961756619518e-01  6.3201962152045266e-01  6.3201962658814714e-01  6.3201963275707052e-01  6.3201964001236177e-01  6.3201964833654267e-01  6.3201965770956026e-01  6.3201966810883459e-01  6.3201967950931393e-01  6.3201969188353369e-01  6.3201970520168449e-01  6.3201971943168245e-01  6.3201973453924698e-01  6.3201975048798353e-01  6.3201976723947106e-01  6.3201978475335430e-01  6.3201980298744220e-01  6.3201982189780759e-01  6.3201984143889456e-01  6.3201986156362777e-01  6.3201988222352568e-01  6.3201990336881764e-01  6.3201992494856318e-01  6.3201994691077534e-01  6.3201996920254599e-01  6.3201999177017265e-01  6.3202001455928802e-01  6.3202003751499181e-01  6.3202006058198168e-01  6.3202008370468743e-01  6.3202010682740462e-01  6.3202012989442835e-01  6.3202015285018809e-01  6.3202017563938129e-01  6.3202019820710653e-01  6.3202022049899564e-01  6.3202024246134525e-01  6.3202026404124567e-01  6.3202028518670850e-01  6.3202030584679170e-01  6.3202032597172275e-01  6.3202034551301833e-01  6.3202036442360066e-01  6.3202038265791205e-01  6.3202040017202354e-01  6.3202041692374133e-01  6.3202043287270815e-01  6.3202044798050072e-01  6.3202046221072217e-01  6.3202047552908991e-01  6.3202048790351817e-01  6.3202049930419490e-01  6.3202050970365442e-01  6.3202051907684265e-01  6.3202052740117820e-01  6.3202053465660668e-01  6.3202054082564829e-01  6.3202054589344125e-01  6.3202054984777611e-01  6.3202055267912671e-01  6.3202055438067151e-01  6.3202055494764198e-01  6.3201956507793455e-01  6.3201956564518091e-01  6.3201956734779197e-01  6.3201957018091659e-01  6.3201957413773013e-01  6.3201957920870044e-01  6.3201958538161152e-01  6.3201959264159258e-01  6.3201960097115428e-01  6.3201961035023080e-01  6.3201962075622731e-01  6.3201963216407597e-01  6.3201964454629456e-01  6.3201965787305459e-01  6.3201967211225107e-01  6.3201968722958146e-01  6.3201970318862788e-01  6.3201971995094397e-01  6.3201973747614915e-01  6.3201975572202429e-01  6.3201977464461423e-01  6.3201979419833376e-01  6.3201981433607701e-01  6.3201983500933101e-01  6.3201985616829282e-01  6.3201987776198942e-01  6.3201989973840000e-01  6.3201992204458213e-01  6.3201994462679878e-01  6.3201996743064781e-01  6.3201999040119283e-01  6.3202001348309622e-01  6.3202003662075157e-01  6.3202005975841857e-01  6.3202008284035627e-01  6.3202010581095835e-01  6.3202012861488621e-01  6.3202015119720312e-01  6.3202017350350581e-01  6.3202019548005606e-01  6.3202021707390998e-01  6.3202023823304543e-01  6.3202025890648761e-01  6.3202027904443181e-01  6.3202029859836306e-01  6.3202031752117371e-01  6.3202033576727612e-01  6.3202035329271300e-01  6.3202037005526313e-01  6.3202038601454336e-01  6.3202040113210556e-01  6.3202041537152920e-01  6.3202042869850961e-01  6.3202044108094013e-01  6.3202045248898953e-01  6.3202046289517411e-01  6.3202047227442404e-01  6.3202048060414295e-01  6.3202048786426335e-01  6.3202049403729466e-01  6.3202049910836500e-01  6.3202050306525737e-01  6.3202050589843894e-01  6.3202050760108419e-01  6.3202050816836108e-01  6.3201951364196307e-01  6.3201951420954727e-01  6.3201951591335204e-01  6.3201951874846329e-01  6.3201952270805106e-01  6.3201952778257697e-01  6.3201953395981614e-01  6.3201954122488757e-01  6.3201954956028983e-01  6.3201955894594231e-01  6.3201956935923520e-01  6.3201958077508258e-01  6.3201959316598333e-01  6.3201960650208766e-01  6.3201962075126827e-01  6.3201963587919874e-01  6.3201965184943520e-01  6.3201966862350512e-01  6.3201968616099868e-01  6.3201970441966793e-01  6.3201972335552659e-01  6.3201974292295748e-01  6.3201976307482166e-01  6.3201978376257240e-01  6.3201980493637167e-01  6.3201982654521061e-01  6.3201984853703219e-01  6.3201987085885680e-01  6.3201989345690968e-01  6.3201991627675036e-01  6.3201993926340427e-01  6.3201996236149471e-01  6.3201998551537664e-01  6.3202000866927011e-01  6.3202003176739552e-01  6.3202005475410739e-01  6.3202007757402845e-01  6.3202010017218324e-01  6.3202012249413042e-01  6.3202014448609400e-01  6.3202016609509293e-01  6.3202018726906883e-01  6.3202020795701097e-01  6.3202022810907965e-01  6.3202024767672593e-01  6.3202026661280897e-01  6.3202028487170925e-01  6.3202030240943863e-01  6.3202031918374646e-01  6.3202033515422096e