<?xml version="1.0"?>
<VTKFile type="UnstructuredGrid"  version="0.1"  >
<UnstructuredGrid>
<Piece  NumberOfPoints="4225" NumberOfCells="8192">
<Points>
<DataArray  type="Float64"  NumberOfComponents="3"  format="ascii">0 0 0  0.015625 0 0  0.03125 0 0  0.046875 0 0  0.0625 0 0  0.078125 0 0  0.09375 0 0  0.109375 0 0  0.125 0 0  0.140625 0 0  0.15625 0 0  0.171875 0 0  0.1875 0 0  0.203125 0 0  0.21875 0 0  0.234375 0 0  0.25 0 0  0.265625 0 0  0.28125 0 0  0.296875 0 0  0.3125 0 0  0.328125 0 0  0.34375 0 0  0.359375 0 0  0.375 0 0  0.390625 0 0  0.40625 0 0  0.421875 0 0  0.4375 0 0  0.453125 0 0  0.46875 0 0  0.484375 0 0  0.5 0 0  0.515625 0 0  0.53125 0 0  0.546875 0 0  0.5625 0 0  0.578125 0 0  0.59375 0 0  0.609375 0 0  0.625 0 0  0.640625 0 0  0.65625 0 0  0.671875 0 0  0.6875 0 0  0.703125 0 0  0.71875 0 0  0.734375 0 0  0.75 0 0  0.765625 0 0  0.78125 0 0  0.796875 0 0  0.8125 0 0  0.828125 0 0  0.84375 0 0  0.859375 0 0  0.875 0 0  0.890625 0 0  0.90625 0 0  0.921875 0 0  0.9375 0 0  0.953125 0 0  0.96875 0 0  0.984375 0 0  1 0 0  0 0.015625 0  0.015625 0.015625 0  0.03125 0.015625 0  0.046875 0.015625 0  0.0625 0.015625 0  0.078125 0.015625 0  0.09375 0.015625 0  0.109375 0.015625 0  0.125 0.015625 0  0.140625 0.015625 0  0.15625 0.015625 0  0.171875 0.015625 0  0.1875 0.015625 0  0.203125 0.015625 0  0.21875 0.015625 0  0.234375 0.015625 0  0.25 0.015625 0  0.265625 0.015625 0  0.28125 0.015625 0  0.296875 0.015625 0  0.3125 0.015625 0  0.328125 0.015625 0  0.34375 0.015625 0  0.359375 0.015625 0  0.375 0.015625 0  0.390625 0.015625 0  0.40625 0.015625 0  0.421875 0.015625 0  0.4375 0.015625 0  0.453125 0.015625 0  0.46875 0.015625 0  0.484375 0.015625 0  0.5 0.015625 0  0.515625 0.015625 0  0.53125 0.015625 0  0.546875 0.015625 0  0.5625 0.015625 0  0.578125 0.015625 0  0.59375 0.015625 0  0.609375 0.015625 0  0.625 0.015625 0  0.640625 0.015625 0  0.65625 0.015625 0  0.671875 0.015625 0  0.6875 0.015625 0  0.703125 0.015625 0  0.71875 0.015625 0  0.734375 0.015625 0  0.75 0.015625 0  0.765625 0.015625 0  0.78125 0.015625 0  0.796875 0.015625 0  0.8125 0.015625 0  0.828125 0.015625 0  0.84375 0.015625 0  0.859375 0.015625 0  0.875 0.015625 0  0.890625 0.015625 0  0.90625 0.015625 0  0.921875 0.015625 0  0.9375 0.015625 0  0.953125 0.015625 0  0.96875 0.015625 0  0.984375 0.015625 0  1 0.015625 0  0 0.03125 0  0.015625 0.03125 0  0.03125 0.03125 0  0.046875 0.03125 0  0.0625 0.03125 0  0.078125 0.03125 0  0.09375 0.03125 0  0.109375 0.03125 0  0.125 0.03125 0  0.140625 0.03125 0  0.15625 0.03125 0  0.171875 0.03125 0  0.1875 0.03125 0  0.203125 0.03125 0  0.21875 0.03125 0  0.234375 0.03125 0  0.25 0.03125 0  0.265625 0.03125 0  0.28125 0.03125 0  0.296875 0.03125 0  0.3125 0.03125 0  0.328125 0.03125 0  0.34375 0.03125 0  0.359375 0.03125 0  0.375 0.03125 0  0.390625 0.03125 0  0.40625 0.03125 0  0.421875 0.03125 0  0.4375 0.03125 0  0.453125 0.03125 0  0.46875 0.03125 0  0.484375 0.03125 0  0.5 0.03125 0  0.515625 0.03125 0  0.53125 0.03125 0  0.546875 0.03125 0  0.5625 0.03125 0  0.578125 0.03125 0  0.59375 0.03125 0  0.609375 0.03125 0  0.625 0.03125 0  0.640625 0.03125 0  0.65625 0.03125 0  0.671875 0.03125 0  0.6875 0.03125 0  0.703125 0.03125 0  0.71875 0.03125 0  0.734375 0.03125 0  0.75 0.03125 0  0.765625 0.03125 0  0.78125 0.03125 0  0.796875 0.03125 0  0.8125 0.03125 0  0.828125 0.03125 0  0.84375 0.03125 0  0.859375 0.03125 0  0.875 0.03125 0  0.890625 0.03125 0  0.90625 0.03125 0  0.921875 0.03125 0  0.9375 0.03125 0  0.953125 0.03125 0  0.96875 0.03125 0  0.984375 0.03125 0  1 0.03125 0  0 0.046875 0  0.015625 0.046875 0  0.03125 0.046875 0  0.046875 0.046875 0  0.0625 0.046875 0  0.078125 0.046875 0  0.09375 0.046875 0  0.109375 0.046875 0  0.125 0.046875 0  0.140625 0.046875 0  0.15625 0.046875 0  0.171875 0.046875 0  0.1875 0.046875 0  0.203125 0.046875 0  0.21875 0.046875 0  0.234375 0.046875 0  0.25 0.046875 0  0.265625 0.046875 0  0.28125 0.046875 0  0.296875 0.046875 0  0.3125 0.046875 0  0.328125 0.046875 0  0.34375 0.046875 0  0.359375 0.046875 0  0.375 0.046875 0  0.390625 0.046875 0  0.40625 0.046875 0  0.421875 0.046875 0  0.4375 0.046875 0  0.453125 0.046875 0  0.46875 0.046875 0  0.484375 0.046875 0  0.5 0.046875 0  0.515625 0.046875 0  0.53125 0.046875 0  0.546875 0.046875 0  0.5625 0.046875 0  0.578125 0.046875 0  0.59375 0.046875 0  0.609375 0.046875 0  0.625 0.046875 0  0.640625 0.046875 0  0.65625 0.046875 0  0.671875 0.046875 0  0.6875 0.046875 0  0.703125 0.046875 0  0.71875 0.046875 0  0.734375 0.046875 0  0.75 0.046875 0  0.765625 0.046875 0  0.78125 0.046875 0  0.796875 0.046875 0  0.8125 0.046875 0  0.828125 0.046875 0  0.84375 0.046875 0  0.859375 0.046875 0  0.875 0.046875 0  0.890625 0.046875 0  0.90625 0.046875 0  0.921875 0.046875 0  0.9375 0.046875 0  0.953125 0.046875 0  0.96875 0.046875 0  0.984375 0.046875 0  1 0.046875 0  0 0.0625 0  0.015625 0.0625 0  0.03125 0.0625 0  0.046875 0.0625 0  0.0625 0.0625 0  0.078125 0.0625 0  0.09375 0.0625 0  0.109375 0.0625 0  0.125 0.0625 0  0.140625 0.0625 0  0.15625 0.0625 0  0.171875 0.0625 0  0.1875 0.0625 0  0.203125 0.0625 0  0.21875 0.0625 0  0.234375 0.0625 0  0.25 0.0625 0  0.265625 0.0625 0  0.28125 0.0625 0  0.296875 0.0625 0  0.3125 0.0625 0  0.328125 0.0625 0  0.34375 0.0625 0  0.359375 0.0625 0  0.375 0.0625 0  0.390625 0.0625 0  0.40625 0.0625 0  0.421875 0.0625 0  0.4375 0.0625 0  0.453125 0.0625 0  0.46875 0.0625 0  0.484375 0.0625 0  0.5 0.0625 0  0.515625 0.0625 0  0.53125 0.0625 0  0.546875 0.0625 0  0.5625 0.0625 0  0.578125 0.0625 0  0.59375 0.0625 0  0.609375 0.0625 0  0.625 0.0625 0  0.640625 0.0625 0  0.65625 0.0625 0  0.671875 0.0625 0  0.6875 0.0625 0  0.703125 0.0625 0  0.71875 0.0625 0  0.734375 0.0625 0  0.75 0.0625 0  0.765625 0.0625 0  0.78125 0.0625 0  0.796875 0.0625 0  0.8125 0.0625 0  0.828125 0.0625 0  0.84375 0.0625 0  0.859375 0.0625 0  0.875 0.0625 0  0.890625 0.0625 0  0.90625 0.0625 0  0.921875 0.0625 0  0.9375 0.0625 0  0.953125 0.0625 0  0.96875 0.0625 0  0.984375 0.0625 0  1 0.0625 0  0 0.078125 0  0.015625 0.078125 0  0.03125 0.078125 0  0.046875 0.078125 0  0.0625 0.078125 0  0.078125 0.078125 0  0.09375 0.078125 0  0.109375 0.078125 0  0.125 0.078125 0  0.140625 0.078125 0  0.15625 0.078125 0  0.171875 0.078125 0  0.1875 0.078125 0  0.203125 0.078125 0  0.21875 0.078125 0  0.234375 0.078125 0  0.25 0.078125 0  0.265625 0.078125 0  0.28125 0.078125 0  0.296875 0.078125 0  0.3125 0.078125 0  0.328125 0.078125 0  0.34375 0.078125 0  0.359375 0.078125 0  0.375 0.078125 0  0.390625 0.078125 0  0.40625 0.078125 0  0.421875 0.078125 0  0.4375 0.078125 0  0.453125 0.078125 0  0.46875 0.078125 0  0.484375 0.078125 0  0.5 0.078125 0  0.515625 0.078125 0  0.53125 0.078125 0  0.546875 0.078125 0  0.5625 0.078125 0  0.578125 0.078125 0  0.59375 0.078125 0  0.609375 0.078125 0  0.625 0.078125 0  0.640625 0.078125 0  0.65625 0.078125 0  0.671875 0.078125 0  0.6875 0.078125 0  0.703125 0.078125 0  0.71875 0.078125 0  0.734375 0.078125 0  0.75 0.078125 0  0.765625 0.078125 0  0.78125 0.078125 0  0.796875 0.078125 0  0.8125 0.078125 0  0.828125 0.078125 0  0.84375 0.078125 0  0.859375 0.078125 0  0.875 0.078125 0  0.890625 0.078125 0  0.90625 0.078125 0  0.921875 0.078125 0  0.9375 0.078125 0  0.953125 0.078125 0  0.96875 0.078125 0  0.984375 0.078125 0  1 0.078125 0  0 0.09375 0  0.015625 0.09375 0  0.03125 0.09375 0  0.046875 0.09375 0  0.0625 0.09375 0  0.078125 0.09375 0  0.09375 0.09375 0  0.109375 0.09375 0  0.125 0.09375 0  0.140625 0.09375 0  0.15625 0.09375 0  0.171875 0.09375 0  0.1875 0.09375 0  0.203125 0.09375 0  0.21875 0.09375 0  0.234375 0.09375 0  0.25 0.09375 0  0.265625 0.09375 0  0.28125 0.09375 0  0.296875 0.09375 0  0.3125 0.09375 0  0.328125 0.09375 0  0.34375 0.09375 0  0.359375 0.09375 0  0.375 0.09375 0  0.390625 0.09375 0  0.40625 0.09375 0  0.421875 0.09375 0  0.4375 0.09375 0  0.453125 0.09375 0  0.46875 0.09375 0  0.484375 0.09375 0  0.5 0.09375 0  0.515625 0.09375 0  0.53125 0.09375 0  0.546875 0.09375 0  0.5625 0.09375 0  0.578125 0.09375 0  0.59375 0.09375 0  0.609375 0.09375 0  0.625 0.09375 0  0.640625 0.09375 0  0.65625 0.09375 0  0.671875 0.09375 0  0.6875 0.09375 0  0.703125 0.09375 0  0.71875 0.09375 0  0.734375 0.09375 0  0.75 0.09375 0  0.765625 0.09375 0  0.78125 0.09375 0  0.796875 0.09375 0  0.8125 0.09375 0  0.828125 0.09375 0  0.84375 0.09375 0  0.859375 0.09375 0  0.875 0.09375 0  0.890625 0.09375 0  0.90625 0.09375 0  0.921875 0.09375 0  0.9375 0.09375 0  0.953125 0.09375 0  0.96875 0.09375 0  0.984375 0.09375 0  1 0.09375 0  0 0.109375 0  0.015625 0.109375 0  0.03125 0.109375 0  0.046875 0.109375 0  0.0625 0.109375 0  0.078125 0.109375 0  0.09375 0.109375 0  0.109375 0.109375 0  0.125 0.109375 0  0.140625 0.109375 0  0.15625 0.109375 0  0.171875 0.109375 0  0.1875 0.109375 0  0.203125 0.109375 0  0.21875 0.109375 0  0.234375 0.109375 0  0.25 0.109375 0  0.265625 0.109375 0  0.28125 0.109375 0  0.296875 0.109375 0  0.3125 0.109375 0  0.328125 0.109375 0  0.34375 0.109375 0  0.359375 0.109375 0  0.375 0.109375 0  0.390625 0.109375 0  0.40625 0.109375 0  0.421875 0.109375 0  0.4375 0.109375 0  0.453125 0.109375 0  0.46875 0.109375 0  0.484375 0.109375 0  0.5 0.109375 0  0.515625 0.109375 0  0.53125 0.109375 0  0.546875 0.109375 0  0.5625 0.109375 0  0.578125 0.109375 0  0.59375 0.109375 0  0.609375 0.109375 0  0.625 0.109375 0  0.640625 0.109375 0  0.65625 0.109375 0  0.671875 0.109375 0  0.6875 0.109375 0  0.703125 0.109375 0  0.71875 0.109375 0  0.734375 0.109375 0  0.75 0.109375 0  0.765625 0.109375 0  0.78125 0.109375 0  0.796875 0.109375 0  0.8125 0.109375 0  0.828125 0.109375 0  0.84375 0.109375 0  0.859375 0.109375 0  0.875 0.109375 0  0.890625 0.109375 0  0.90625 0.109375 0  0.921875 0.109375 0  0.9375 0.109375 0  0.953125 0.109375 0  0.96875 0.109375 0  0.984375 0.109375 0  1 0.109375 0  0 0.125 0  0.015625 0.125 0  0.03125 0.125 0  0.046875 0.125 0  0.0625 0.125 0  0.078125 0.125 0  0.09375 0.125 0  0.109375 0.125 0  0.125 0.12
[...]
<PointData  Scalars="f_12"> 
<DataArray  type="Float64"  Name="f_12"  format="ascii">6.3490605713924508e-01  6.3491125995535658e-01  6.3492699905330630e-01  6.3495371957482594e-01  6.3499195960365129e-01  6.3504176546246049e-01  6.3510238237404715e-01  6.3517236084921580e-01  6.3524984497621129e-01  6.3533285468648271e-01  6.3541948063584108e-01  6.3550811535052409e-01  6.3559742267030728e-01  6.3568619666449633e-01  6.3577330613717908e-01  6.3585770114025308e-01  6.3593837394946084e-01  6.3601412556126624e-01  6.3608321007783108e-01  6.3614348733422632e-01  6.3619261410199401e-01  6.3622797903742012e-01  6.3624681382056714e-01  6.3624632855694296e-01  6.3622398910134836e-01  6.3617787664616943e-01  6.3610696210354589e-01  6.3601124725798264e-01  6.3589176886311949e-01  6.3575066082820886e-01  6.3559104869186978e-01  6.3541696050569607e-01  6.3523333526378867e-01  6.3504560940443822e-01  6.3485908718027706e-01  6.3467887195275219e-01  6.3450958724231521e-01  6.3435466309116761e-01  6.3421572014053218e-01  6.3409262331100680e-01  6.3398404292542854e-01  6.3388818305132921e-01  6.3380353217266894e-01  6.3372911345365068e-01  6.3366454411901840e-01  6.3360998906886046e-01  6.3356583060505611e-01  6.3353216898048847e-01  6.3350856556105617e-01  6.3349416651052448e-01  6.3348777209447138e-01  6.3348772192661673e-01  6.3349164837635219e-01  6.3349641947777335e-01  6.3349864814810164e-01  6.3349547915538651e-01  6.3348533116950201e-01  6.3346820528529424e-01  6.3344532363663097e-01  6.3341885263323161e-01  6.3339161160132340e-01  6.3336656283331960e-01  6.3334644417773278e-01  6.3333342500501943e-01  6.3332891180707729e-01  6.3489728923131361e-01  6.3490253571079114e-01  6.3491838343769536e-01  6.3494524099471028e-01  6.3498358291319412e-01  6.3503339829950556e-01  6.3509392610352855e-01  6.3516375352891907e-01  6.3524106223523846e-01  6.3532391221323536e-01  6.3541043766909566e-01  6.3549901163128308e-01  6.3558828727788119e-01  6.3567708805125067e-01  6.3576429028333525e-01  6.3584881682705696e-01  6.3592960848948910e-01  6.3600541251352738e-01  6.3607446983658855e-01  6.3613462674587173e-01  6.3618352781167109e-01  6.3621859652091783e-01  6.3623714234139483e-01  6.3623642980680217e-01  6.3621394078700200e-01  6.3616776205508341e-01  6.3609686411802813e-01  6.3600123286426680e-01  6.3588188859832928e-01  6.3574097079992709e-01  6.3558162109167493e-01  6.3540786996403653e-01  6.3522459405973519e-01  6.3503716470924565e-01  6.3485087264126605e-01  6.3467079448447272e-01  6.3450154061787034e-01  6.3434654377155242e-01  6.3420745034642356e-01  6.3408417771909242e-01  6.3397545894169505e-01  6.3387954220056042e-01  6.3379493783277296e-01  6.3372072728893425e-01  6.3365659167119615e-01  6.3360270929150919e-01  6.3355941168813001e-01  6.3352674537574161e-01  6.3350423556084545e-01  6.3349099333058545e-01  6.3348577504900871e-01  6.3348687489759470e-01  6.3349189940783734e-01  6.3349771394228527e-01  6.3350093020092590e-01  6.3349870260955288e-01  6.3348943563073135e-01  6.3347309361294146e-01  6.3345090053694952e-01  6.3342503308729070e-01  6.3339830487860038e-01  6.3337366838348708e-01  6.3335384126981542e-01  6.3334097465351957e-01  6.3333650908036654e-01  6.3487080791681316e-01  6.3487617528974782e-01  6.3489232937557061e-01  6.3491954178635468e-01  6.3495811068098185e-01  6.3500790977354915e-01  6.3506818931760500e-01  6.3513762880542013e-01  6.3521449455045875e-01  6.3529693466442849e-01  6.3538319234027651e-01  6.3547162778208977e-01  6.3556086565491854e-01  6.3564977646599563e-01  6.3573724958976208e-01  6.3582212649543912e-01  6.3590321365411084e-01  6.3597911670158958e-01  6.3604803902228924e-01  6.3610781722357923e-01  6.3615608295791770e-01  6.3619034332112034e-01  6.3620807007419533e-01  6.3620668384534063e-01  6.3618375964598162e-01  6.3613740173113009e-01  6.3606656021734409e-01  6.3597118388202367e-01  6.3585228431261887e-01  6.3571199982203974e-01  6.3555349042392839e-01  6.3538073449320864e-01  6.3519845208400161e-01  6.3501185816941697e-01  6.3482618751088449e-01  6.3464646873705366e-01  6.3447727433726009e-01  6.3432205315554036e-01  6.3418253617125331e-01  6.3405877467174510e-01  6.3394964577052371e-01  6.3385356483118194e-01  6.3376918282194639e-01  6.3369571446225870e-01  6.3363298174787630e-01  6.3358116086301608e-01  6.3354043552262751e-01  6.3351070269638088e-01  6.3349139801521115e-01  6.3348154812969659e-01  6.3347977669917066e-01  6.3348424176532458e-01  6.3349248680410775e-01  6.3350136919924527e-01  6.3350751422907958e-01  6.3350808945508841e-01  6.3350144564675503e-01  6.3348746063904515e-01  6.3346735530998899e-01  6.3344332029378647e-01  6.3341813201961350e-01  6.3339471045959284e-01  6.3337573184712526e-01  6.3336333401254297e-01  6.3335902100985320e-01  6.3482609475874174e-01  6.3483163068482640e-01  6.3484821431809813e-01  6.3487590372139591e-01  6.3491474460674679e-01  6.3496448090056146e-01  6.3502440771575419e-01  6.3509332139693409e-01  6.3516961615158385e-01  6.3525156510676573e-01  6.3533749994791922e-01  6.3542579954495115e-01  6.3551507773666005e-01  6.3560423456979220e-01  6.3569213997644802e-01  6.3577750822706169e-01  6.3585896883566362e-01  6.3593495854844384e-01  6.3600360240663267e-01  6.3606273600418628e-01  6.3611001796666422e-01  6.3614307490153343e-01  6.3615955003808355e-01  6.3615707753752526e-01  6.3613343128560240e-01  6.3608677779306322e-01  6.3601601911307681e-01  6.3592107269212339e-01  6.3580295927646269e-01  6.3566379550245855e-01  6.3550669211418520e-01  6.3533550620013002e-01  6.3515473073440532e-01  6.3496938756187338e-01  6.3478464290000070e-01  6.3460547483085961e-01  6.3443639455030565e-01  6.3428086964807195e-01  6.3414075949287574e-01  6.3401629587902408e-01  6.3390657791919935e-01  6.3381031600617899e-01  6.3372645113570858e-01  6.3365443408510425e-01  6.3359420093170382e-01  6.3354586119919221e-01  6.3350938255033573e-01  6.3348442136351002e-01  6.3347025655821032e-01  6.3346580051562662e-01  6.3346952857359440e-01  6.3347941035924371e-01  6.3349286119025627e-01  6.3350672036168443e-01  6.3351764104096309e-01  6.3352277393637046e-01  6.3352038165788205e-01  6.3351026147337886e-01  6.3349362497092232e-01  6.3347265187195367e-01  6.3345005032764357e-01  6.3342866951065901e-01  6.3341112722327952e-01  6.3339957200315289e-01  6.3339554493731354e-01  6.3476234575681523e-01  6.3476808018277564e-01  6.3478515827040882e-01  6.3481339524699998e-01  6.3485256888788999e-01  6.3490227186210579e-01  6.3496182116621125e-01  6.3503013397502994e-01  6.3510581039343805e-01  6.3518729113117967e-01  6.3527295638652115e-01  6.3536120764277537e-01  6.3545065516117061e-01  6.3554019476808998e-01  6.3562864839322419e-01  6.3571458765360400e-01  6.3579645362359760e-01  6.3587252732152999e-01  6.3594081304958727e-01  6.3599909017000644e-01  6.3604506671713379e-01  6.3607655438672850e-01  6.3609142543353636e-01  6.3608755849253562e-01  6.3606293909944078e-01  6.3601585341656874e-01  6.3594520432391621e-01  6.3585089191050548e-01  6.3573393619470930e-01  6.3559639916827870e-01  6.3544122311468432e-01  6.3527203712274460e-01  6.3509311777322364e-01  6.3490932100842856e-01  6.3472573389020059e-01  6.3454729757146655e-01  6.3437844936582755e-01  6.3422263198632844e-01  6.3408184207780838e-01  6.3395658039420633e-01  6.3384629583214103e-01  6.3375006800547340e-01  6.3366720256884945e-01  6.3359743482540898e-01  6.3354077717115043e-01  6.3349724191265677e-01  6.3346653085166571e-01  6.3344798227137267e-01  6.3344065246647774e-01  6.3344330063958143e-01  6.3345427536801624e-01  6.3347138070912101e-01  6.3349186159518334e-01  6.3351249263914944e-01  6.3352991064838737e-01  6.3354121950451681e-01  6.3354461762153580e-01  6.3353981930389058e-01  6.3352799505880175e-01  6.3351128997147155e-01  6.3349233714761810e-01  6.3347387345211870e-01  6.3345842814341979e-01  6.3344813588263882e-01  6.3344454100722414e-01  6.3467856343913120e-01  6.3468451416200966e-01  6.3470214820839854e-01  6.3473105012668041e-01  6.3477072360135012e-01  6.3482057171428685e-01  6.3487985796916369e-01  6.3494761531479427e-01  6.3502268816340413e-01  6.3510372298887696e-01  6.3518917982272571e-01  6.3527748223265512e-01  6.3536723607377765e-01  6.3545727143000452e-01  6.3554633822129358e-01  6.3563290790486315e-01  6.3571525103098725e-01  6.3579146904750583e-01  6.3585939375256417e-01  6.3591669208505786e-01  6.3596112062180599e-01  6.3599070960775128e-01  6.3600366564246291e-01  6.3599816563437750e-01  6.3597238374396869e-01  6.3592473477462930e-01  6.3585419342436922e-01  6.3576068115455142e-01  6.3564521068512636e-01  6.3550971962429714e-01  6.3535687138360508e-01  6.3518998735848520e-01  6.3501315980320039e-01  6.3483112693331356e-01  6.3464889067889796e-01  6.3447136792567671e-01  6.3430293234196955e-01  6.3414695139808930e-01  6.3400554457264235e-01  6.3387956459127170e-01  6.3376894373037795e-01  6.3367321252614717e-01  6.3359202593094088e-01  6.3352532616465795e-01  6.3347318717278589e-01  6.3343553642814521e-01  6.3341180382007622e-01  6.3340099960187779e-01  6.3340192408215035e-01  6.3341313395489163e-01  6.3343282922762523e-01  6.3345867893588326e-01  6.3348776122436457e-01  6.3351672510542711e-01  6.3354215740111608e-01  6.3356112800798370e-01  6.3357180255353984e-01  6.3357380131166274e-01  6.3356816429775831e-01  6.3355694932217599e-01  6.3354270099978449e-01  6.3352803412668313e-01  6.3351537752944165e-01  6.3350679637133389e-01  6.3350378511716365e-01  6.3457357135930814e-01  6.3457976584297648e-01  6.3459806290935206e-01  6.3462784844653375e-01  6.3466832969053422e-01  6.3471865146525219e-01  6.3477796806830600e-01  6.3484539436012011e-01  6.3492000512272539e-01  6.3500069187982100e-01  6.3508604110621703e-01  6.3517450765610661e-01  6.3526469219821813e-01  6.3535535279860300e-01  6.3544512906778883e-01  6.3553239372452852e-01  6.3561528260862177e-01  6.3569169605908837e-01  6.3575925365833619e-01  6.3581551149035231e-01  6.3585827977705245e-01  6.3588580028648278e-01  6.3589662889915965e-01  6.3588930351357054e-01  6.3586222017186866e-01  6.3581391457619751e-01  6.3574345960166434e-01  6.3565083301722858e-01  6.3553702450169880e-01  6.3540378047133550e-01  6.3525343875707063e-01  6.3508904550897749e-01  6.3491451463448390e-01  6.3473445773800552e-01  6.3455379076517793e-01  6.3437738308248359e-01  6.3420953903063704e-01  6.3405357650188210e-01  6.3391174524666927e-01  6.3378529716317222e-01  6.3367472558246640e-01  6.3358009073810173e-01  6.3350133616082605e-01  6.3343849380626405e-01  6.3339166041908634e-01  6.3336069130552552e-01  6.3334481629890960e-01  6.3334279259551496e-01  6.3335315809395254e-01  6.3337419356716385e-01  6.3340386260757320e-01  6.3343967379733424e-01  6.3347857717604594e-01  6.3351711556748502e-01  6.3355183131786308e-01  6.3357980894577526e-01  6.3359916286123941e-01  6.3360937928221106e-01  6.3361130623504469e-01  6.3360682302268423e-01  6.3359833042141667e-01  6.3358831950128258e-01  6.3357911709546133e-01  6.3357269378354042e-01  6.3357042942438191e-01  6.3444613482593748e-01  6.3445261869292124e-01  6.3447173456762318e-01  6.3450268258792519e-01  6.3454437279882892e-01  6.3459564770647192e-01  6.3465547915567577e-01  6.3472300556280103e-01  6.3479751009443119e-01  6.3487813678834393e-01  6.3496363299898329e-01  6.3505249856976320e-01  6.3514332481884617e-01  6.3523479753639045e-01  6.3532544405687785e-01  6.3541350108231653e-01  6.3549693753034542e-01  6.3557346324247677e-01  6.3564055405300679e-01  6.3569571118965595e-01  6.3573681113575209e-01  6.3576229164131270e-01  6.3577099911890578e-01  6.3576178975712860e-01  6.3573332711489539e-01  6.3568431229154521e-01  6.3561393284238954e-01  6.3552222263248637e-01  6.3541009916458224e-01  6.3527908310364734e-01  6.3513122206392969e-01  6.3496936778705182e-01  6.3479728251510270e-01  6.3461941408662992e-01  6.3444055732782878e-01  6.3426546901609315e-01  6.3409837690434101e-01  6.3394261168043853e-01  6.3380061320934877e-01  6.3367406120677006e-01  6.3356401356931524e-01  6.3347103630388713e-01  6.3339534346051585e-01  6.3333701448973290e-01  6.3329612888286257e-01  6.3327246701766349e-01  6.3326515031506758e-01  6.3327274889770191e-01  6.3329351273715906e-01  6.3332540409010585e-01  6.3336606038915344e-01  6.3341275929009233e-01  6.3346237857915810e-01  6.3351145720209767e-01  6.3355652318802635e-01  6.3359465507387591e-01  6.3362389333887637e-01  6.3364355742138212e-01  6.3365427390904094e-01  6.3365767973440978e-01  6.3365595475590852e-01  6.3365143044561345e-01  6.3364632478218585e-01  6.3364247912989347e-01  6.3364110663633677e-01  6.3429493343788568e-01  6.3430178121816971e-01  6.3432192242140839e-01  6.3435435810651120e-01  6.3439773028416391e-01  6.3445056294802993e-01  6.3451159521713352e-01  6.3457992221983373e-01  6.3465492987610450e-01  6.3473598825699595e-01  6.3482208141284657e-01  6.3491179401569109e-01  6.3500366325140489e-01  6.3509624422848321e-01  6.3518795454797350e-01  6.3527688781438929e-01  6.3536081240468190e-01  6.3543728025163271e-01  6.3550374333817661e-01  6.3555773935256110e-01  6.3559722056090795e-01  6.3562080363628604e-01  6.3562755450859432e-01  6.3561656302573233e-01  6.3558673869853655e-01  6.3553701844898414e-01  6.3546675239848249e-01  6.3537600004716455e-01  6.3526551540684173e-01  6.3513656977343680e-01  6.3499103172075866e-01  6.3483164280176752e-01  6.3466203384553577e-01  6.3448648015071352e-01  6.3430959834421197e-01  6.3413597581883652e-01  6.3396978164199913e-01  6.3381443755007005e-01  6.3367262473295105e-01  6.3354643643766029e-01  6.3343742501222911e-01  6.3334656973930881e-01  6.3327435970941104e-01  6.3322101846446821e-01  6.3318661129027143e-01  6.3317081986082380e-01  6.3317268778787950e-01  6.3319060569453534e-01  6.3322249644483275e-01  6.3326597100425841e-01  6.3331832052403536e-01  6.3337657859670171e-01  6.3343758207719125e-01  6.3349792749322675e-01  6.3355414936641408e-01  6.3360328733704208e-01  6.3364331531134055e-01  6.3367338710643373e-01  6.3369388245698444e-01  6.3370614540420978e-01  6.3371209400498363e-01  6.3371383464255771e-01  6.3371340251535091e-01  6.3371246898895106e-01  6.3371208712305038e-01  6.3411859304190876e-01  6.3412588794162916e-01  6.3414730785018869e-01  6.3418164092814100e-01  6.3422726308629507e-01  6.3428238596460074e-01  6.3434549416898856e-01  6.3441557619112887e-01  6.3449198891180836e-01  6.3457424754140990e-01  6.3466160215223533e-01  6.3475277587868040e-01  6.3484622738153462e-01  6.3494031696626885e-01  6.3503331063083091e-01  6.3512317608847957e-01  6.3520751657036523e-01  6.3528377890011134e-01  6.3534948360309540e-01  6.3540229084474809e-01  6.3544025817808225e-01  6.3546211903990335e-01  6.3546710162171038e-01  6.3545448640562396e-01  6.3542341179859585e-01  6.3537306620470990e-01  6.3530298813896646e-01  6.3521322131540459e-01  6.3510429237042842e-01  6.3497725464981669e-01  6.3483387741036201e-01  6.3467683142296905e-01  6.3450962063821736e-01  6.3433634080455004e-01  6.3416143766789657e-01  6.3398934546074159e-01  6.3382419152138014e-01  6.3366955337847775e-01  6.3352839095959568e-01  6.3340314020869448e-01  6.3329571460203027e-01  6.3320743346037722e-01  6.3313908519811635e-01  6.3309112485638130e-01  6.3306365146328525e-01  6.3305624571797570e-01  6.3306782714318532e-01  6.3309657576250578e-01  6.3314009004968197e-01  6.3319560381007922e-01  6.3326006480221320e-01  6.3333030075827412e-01  6.3340312070737836e-01  6.3347515684942746e-01  6.3354297601441223e-01  6.3360361061081916e-01  6.3365499893829946e-01  6.3369614896769766e-01  6.3372714011341447e-01  6.3374898594235418e-01  6.3376332263491852e-01  6.3377197099587645e-01  6.3377668465776749e-01  6.3377892559552973e-01  6.3377961434343844e-01  6.3391593631464715e-01  6.3392377866175642e-01  6.3394677543630285e-01  6.3398348072457122e-01  6.3403199861498694e-01  6.3409027542201124e-01  6.3415652773410447e-01  6.3422953817848549e-01  6.3430854996673924e-01  6.3439310137624494e-01  6.3448262161321445e-01  6.3457598785886604e-01  6.3467161402079397e-01  6.3476767529669531e-01  6.3486222729119612e-01  6.3495311066782978e-01  6.3503784076339986e-01  6.3511383155943568e-01  6.3517871032223405e-01  6.3523031930198470e-01  6.3526684705205017e-01  6.3528711037636709e-01  6.3529046053085814e-01  6.3527637454431107e-01  6.3524424389995182e-01  6.3519347044360797e-01  6.3512367716342000e-01  6.3503484727001391e-01  6.3492735422108104e-01  6.3480209263119292e-01  6.3466074689593721e-01  6.3450589462428841e-01  6.3434091244773061e-01  6.3416974658114045e-01  6.3399669933759362e-01  6.3382612805366090e-01  6.3366216246299811e-01  6.3350855544639850e-01  6.3336856817709397e-01  6.3324490968547398e-01  6.3313971224693877e-01  6.3305455465806215e-01  6.3299055850269981e-01  6.3294844562739117e-01  6.3292837179058448e-01  6.3292981518159286e-01  6.3295151197373734e-01  6.3299139823945960e-01  6.3304676836000551e-01  6.3311448666253345e-01  6.3319118998430346e-01  6.3327355597096524e-01  6.3335833349170045e-01  6.3344216094422501e-01  6.3352168285081734e-01  6.3359399677186501e-01  6.3365702187937401e-01  6.3370959670243410e-01  6.3375148596378683e-01  6.3378334924793978e-01  6.3380647957507097e-01  6.3382238159028403e-01  6.3383251581514566e-01  6.3383809770014987e-01  6.3383991071627221e-01  6.3368645952125102e-01  6.3369494280113192e-01  6.3371981310754710e-01  6.3375941518802559e-01  6.3381158357827805e-01  6.3387399224671725e-01  6.3394458474782389e-01  6.3402187021739254e-01  6.3410487706491048e-01  6.3419304119721776e-01  6.3428585142283589e-01  6.3438229099299148e-01  6.3448074361751949e-01  6.3457925108764068e-01  6.3467568717561818e-01  6.3476774845231632e-01  6.3485292057884224e-01  6.3492867407096754e-01  6.3499274599280686e-01  6.3504314148801777e-01  6.3507821148265242e-01  6.3509690123567497e-01  6.3509870216071940e-01  6.3508331276266428e-01  6.3505037294693556e-01  6.3499940091759000e-01  6.3492997793779626e-01  6.3484200474613917e-01  6.3473579709986960e-01  6.3461217263599978e-01  6.3447270037723658e-01  6.3431982441404189e-01  6.3415680359748905e-01  6.3398749832397250e-01  6.3381612470311122e-01  6.3364701927901701e-01  6.3348439904243925e-01  6.3333222242712339e-01  6.3319400604921439e-01  6.3307265793202372e-01  6.3297045407800479e-01  6.3288916711141963e-01  6.3283021592379551e-01  6.3279456516625965e-01  6.3278240229693550e-01  6.3279307313988020e-01  6.3282510902643785e-01  6.3287619463498868e-01  6.3294333105980738e-01  6.3302308583105082e-01  6.3311186288476407e-01  6.3320620980927289e-01  6.3330279683030399e-01  6.3339826479435435e-01  6.3348937353354928e-01  6.3357333546595818e-01  6.3364802939868481e-01  6.3371208106994592e-01  6.3376493839361348e-01  6.3380687808842151e-01  6.3383880489866340e-01  6.3386191499165556e-01  6.3387742813582570e-01  6.3388633331819755e-01  6.3388926217073294e-01  6.3343081428638537e-01  6.3344001343987255e-01  6.3346702422326773e-01  6.3351003682744156e-01  6.3356661514753465e-01  6.3363415125199429e-01  6.3371030853527710e-01  6.3379325067954462e-01  6.3388169963297103e-01  6.3397490451171101e-01  6.3407228467216925e-01  6.3417281402527137e-01  6.3427483811891927e-01  6.3437632152293666e-01  6.3447501752394464e-01  6.3456850239329332e-01  6.3465427187045931e-01  6.3472991800361633e-01  6.3479328198837615e-01  6.3484248899164453e-01  6.3487608067852330e-01  6.3489318731900635e-01  6.3489348508262478e-01  6.3487690997386215e-01  6.3484330950952561e-01  6.3479224796793698e-01  6.3472321454170855e-01  6.3463601243043666e-01  6.3453092093403674e-01  6.3440872815434479e-01  6.3427089655175839e-01  6.3411972918790505e-01  6.3395839193038206e-01  6.3379071214262528e-01  6.3362087901878639e-01  6.3345325168922795e-01  6.3329221321026086e-01  6.3314193545045017e-01  6.3300613573613551e-01  6.3288787441032690e-01  6.3278955465215381e-01  6.3271308909240109e-01  6.3266005690636284e-01  6.3263154950361944e-01  6.3262775879156496e-01  6.3264788687315410e-01  6.3269024123977713e-01  6.3275227693181502e-01  6.3283074864918620e-01  6.3292203460126417e