<?xml version="1.0"?>
<VTKFile type="UnstructuredGrid"  version="0.1"  >
<UnstructuredGrid>
<Piece  NumberOfPoints="4225" NumberOfCells="8192">
<Points>
<DataArray  type="Float64"  NumberOfComponents="3"  format="ascii">0 0 0  0.015625 0 0  0.03125 0 0  0.046875 0 0  0.0625 0 0  0.078125 0 0  0.09375 0 0  0.109375 0 0  0.125 0 0  0.140625 0 0  0.15625 0 0  0.171875 0 0  0.1875 0 0  0.203125 0 0  0.21875 0 0  0.234375 0 0  0.25 0 0  0.265625 0 0  0.28125 0 0  0.296875 0 0  0.3125 0 0  0.328125 0 0  0.34375 0 0  0.359375 0 0  0.375 0 0  0.390625 0 0  0.40625 0 0  0.421875 0 0  0.4375 0 0  0.453125 0 0  0.46875 0 0  0.484375 0 0  0.5 0 0  0.515625 0 0  0.53125 0 0  0.546875 0 0  0.5625 0 0  0.578125 0 0  0.59375 0 0  0.609375 0 0  0.625 0 0  0.640625 0 0  0.65625 0 0  0.671875 0 0  0.6875 0 0  0.703125 0 0  0.71875 0 0  0.734375 0 0  0.75 0 0  0.765625 0 0  0.78125 0 0  0.796875 0 0  0.8125 0 0  0.828125 0 0  0.84375 0 0  0.859375 0 0  0.875 0 0  0.890625 0 0  0.90625 0 0  0.921875 0 0  0.9375 0 0  0.953125 0 0  0.96875 0 0  0.984375 0 0  1 0 0  0 0.015625 0  0.015625 0.015625 0  0.03125 0.015625 0  0.046875 0.015625 0  0.0625 0.015625 0  0.078125 0.015625 0  0.09375 0.015625 0  0.109375 0.015625 0  0.125 0.015625 0  0.140625 0.015625 0  0.15625 0.015625 0  0.171875 0.015625 0  0.1875 0.015625 0  0.203125 0.015625 0  0.21875 0.015625 0  0.234375 0.015625 0  0.25 0.015625 0  0.265625 0.015625 0  0.28125 0.015625 0  0.296875 0.015625 0  0.3125 0.015625 0  0.328125 0.015625 0  0.34375 0.015625 0  0.359375 0.015625 0  0.375 0.015625 0  0.390625 0.015625 0  0.40625 0.015625 0  0.421875 0.015625 0  0.4375 0.015625 0  0.453125 0.015625 0  0.46875 0.015625 0  0.484375 0.015625 0  0.5 0.015625 0  0.515625 0.015625 0  0.53125 0.015625 0  0.546875 0.015625 0  0.5625 0.015625 0  0.578125 0.015625 0  0.59375 0.015625 0  0.609375 0.015625 0  0.625 0.015625 0  0.640625 0.015625 0  0.65625 0.015625 0  0.671875 0.015625 0  0.6875 0.015625 0  0.703125 0.015625 0  0.71875 0.015625 0  0.734375 0.015625 0  0.75 0.015625 0  0.765625 0.015625 0  0.78125 0.015625 0  0.796875 0.015625 0  0.8125 0.015625 0  0.828125 0.015625 0  0.84375 0.015625 0  0.859375 0.015625 0  0.875 0.015625 0  0.890625 0.015625 0  0.90625 0.015625 0  0.921875 0.015625 0  0.9375 0.015625 0  0.953125 0.015625 0  0.96875 0.015625 0  0.984375 0.015625 0  1 0.015625 0  0 0.03125 0  0.015625 0.03125 0  0.03125 0.03125 0  0.046875 0.03125 0  0.0625 0.03125 0  0.078125 0.03125 0  0.09375 0.03125 0  0.109375 0.03125 0  0.125 0.03125 0  0.140625 0.03125 0  0.15625 0.03125 0  0.171875 0.03125 0  0.1875 0.03125 0  0.203125 0.03125 0  0.21875 0.03125 0  0.234375 0.03125 0  0.25 0.03125 0  0.265625 0.03125 0  0.28125 0.03125 0  0.296875 0.03125 0  0.3125 0.03125 0  0.328125 0.03125 0  0.34375 0.03125 0  0.359375 0.03125 0  0.375 0.03125 0  0.390625 0.03125 0  0.40625 0.03125 0  0.421875 0.03125 0  0.4375 0.03125 0  0.453125 0.03125 0  0.46875 0.03125 0  0.484375 0.03125 0  0.5 0.03125 0  0.515625 0.03125 0  0.53125 0.03125 0  0.546875 0.03125 0  0.5625 0.03125 0  0.578125 0.03125 0  0.59375 0.03125 0  0.609375 0.03125 0  0.625 0.03125 0  0.640625 0.03125 0  0.65625 0.03125 0  0.671875 0.03125 0  0.6875 0.03125 0  0.703125 0.03125 0  0.71875 0.03125 0  0.734375 0.03125 0  0.75 0.03125 0  0.765625 0.03125 0  0.78125 0.03125 0  0.796875 0.03125 0  0.8125 0.03125 0  0.828125 0.03125 0  0.84375 0.03125 0  0.859375 0.03125 0  0.875 0.03125 0  0.890625 0.03125 0  0.90625 0.03125 0  0.921875 0.03125 0  0.9375 0.03125 0  0.953125 0.03125 0  0.96875 0.03125 0  0.984375 0.03125 0  1 0.03125 0  0 0.046875 0  0.015625 0.046875 0  0.03125 0.046875 0  0.046875 0.046875 0  0.0625 0.046875 0  0.078125 0.046875 0  0.09375 0.046875 0  0.109375 0.046875 0  0.125 0.046875 0  0.140625 0.046875 0  0.15625 0.046875 0  0.171875 0.046875 0  0.1875 0.046875 0  0.203125 0.046875 0  0.21875 0.046875 0  0.234375 0.046875 0  0.25 0.046875 0  0.265625 0.046875 0  0.28125 0.046875 0  0.296875 0.046875 0  0.3125 0.046875 0  0.328125 0.046875 0  0.34375 0.046875 0  0.359375 0.046875 0  0.375 0.046875 0  0.390625 0.046875 0  0.40625 0.046875 0  0.421875 0.046875 0  0.4375 0.046875 0  0.453125 0.046875 0  0.46875 0.046875 0  0.484375 0.046875 0  0.5 0.046875 0  0.515625 0.046875 0  0.53125 0.046875 0  0.546875 0.046875 0  0.5625 0.046875 0  0.578125 0.046875 0  0.59375 0.046875 0  0.609375 0.046875 0  0.625 0.046875 0  0.640625 0.046875 0  0.65625 0.046875 0  0.671875 0.046875 0  0.6875 0.046875 0  0.703125 0.046875 0  0.71875 0.046875 0  0.734375 0.046875 0  0.75 0.046875 0  0.765625 0.046875 0  0.78125 0.046875 0  0.796875 0.046875 0  0.8125 0.046875 0  0.828125 0.046875 0  0.84375 0.046875 0  0.859375 0.046875 0  0.875 0.046875 0  0.890625 0.046875 0  0.90625 0.046875 0  0.921875 0.046875 0  0.9375 0.046875 0  0.953125 0.046875 0  0.96875 0.046875 0  0.984375 0.046875 0  1 0.046875 0  0 0.0625 0  0.015625 0.0625 0  0.03125 0.0625 0  0.046875 0.0625 0  0.0625 0.0625 0  0.078125 0.0625 0  0.09375 0.0625 0  0.109375 0.0625 0  0.125 0.0625 0  0.140625 0.0625 0  0.15625 0.0625 0  0.171875 0.0625 0  0.1875 0.0625 0  0.203125 0.0625 0  0.21875 0.0625 0  0.234375 0.0625 0  0.25 0.0625 0  0.265625 0.0625 0  0.28125 0.0625 0  0.296875 0.0625 0  0.3125 0.0625 0  0.328125 0.0625 0  0.34375 0.0625 0  0.359375 0.0625 0  0.375 0.0625 0  0.390625 0.0625 0  0.40625 0.0625 0  0.421875 0.0625 0  0.4375 0.0625 0  0.453125 0.0625 0  0.46875 0.0625 0  0.484375 0.0625 0  0.5 0.0625 0  0.515625 0.0625 0  0.53125 0.0625 0  0.546875 0.0625 0  0.5625 0.0625 0  0.578125 0.0625 0  0.59375 0.0625 0  0.609375 0.0625 0  0.625 0.0625 0  0.640625 0.0625 0  0.65625 0.0625 0  0.671875 0.0625 0  0.6875 0.0625 0  0.703125 0.0625 0  0.71875 0.0625 0  0.734375 0.0625 0  0.75 0.0625 0  0.765625 0.0625 0  0.78125 0.0625 0  0.796875 0.0625 0  0.8125 0.0625 0  0.828125 0.0625 0  0.84375 0.0625 0  0.859375 0.0625 0  0.875 0.0625 0  0.890625 0.0625 0  0.90625 0.0625 0  0.921875 0.0625 0  0.9375 0.0625 0  0.953125 0.0625 0  0.96875 0.0625 0  0.984375 0.0625 0  1 0.0625 0  0 0.078125 0  0.015625 0.078125 0  0.03125 0.078125 0  0.046875 0.078125 0  0.0625 0.078125 0  0.078125 0.078125 0  0.09375 0.078125 0  0.109375 0.078125 0  0.125 0.078125 0  0.140625 0.078125 0  0.15625 0.078125 0  0.171875 0.078125 0  0.1875 0.078125 0  0.203125 0.078125 0  0.21875 0.078125 0  0.234375 0.078125 0  0.25 0.078125 0  0.265625 0.078125 0  0.28125 0.078125 0  0.296875 0.078125 0  0.3125 0.078125 0  0.328125 0.078125 0  0.34375 0.078125 0  0.359375 0.078125 0  0.375 0.078125 0  0.390625 0.078125 0  0.40625 0.078125 0  0.421875 0.078125 0  0.4375 0.078125 0  0.453125 0.078125 0  0.46875 0.078125 0  0.484375 0.078125 0  0.5 0.078125 0  0.515625 0.078125 0  0.53125 0.078125 0  0.546875 0.078125 0  0.5625 0.078125 0  0.578125 0.078125 0  0.59375 0.078125 0  0.609375 0.078125 0  0.625 0.078125 0  0.640625 0.078125 0  0.65625 0.078125 0  0.671875 0.078125 0  0.6875 0.078125 0  0.703125 0.078125 0  0.71875 0.078125 0  0.734375 0.078125 0  0.75 0.078125 0  0.765625 0.078125 0  0.78125 0.078125 0  0.796875 0.078125 0  0.8125 0.078125 0  0.828125 0.078125 0  0.84375 0.078125 0  0.859375 0.078125 0  0.875 0.078125 0  0.890625 0.078125 0  0.90625 0.078125 0  0.921875 0.078125 0  0.9375 0.078125 0  0.953125 0.078125 0  0.96875 0.078125 0  0.984375 0.078125 0  1 0.078125 0  0 0.09375 0  0.015625 0.09375 0  0.03125 0.09375 0  0.046875 0.09375 0  0.0625 0.09375 0  0.078125 0.09375 0  0.09375 0.09375 0  0.109375 0.09375 0  0.125 0.09375 0  0.140625 0.09375 0  0.15625 0.09375 0  0.171875 0.09375 0  0.1875 0.09375 0  0.203125 0.09375 0  0.21875 0.09375 0  0.234375 0.09375 0  0.25 0.09375 0  0.265625 0.09375 0  0.28125 0.09375 0  0.296875 0.09375 0  0.3125 0.09375 0  0.328125 0.09375 0  0.34375 0.09375 0  0.359375 0.09375 0  0.375 0.09375 0  0.390625 0.09375 0  0.40625 0.09375 0  0.421875 0.09375 0  0.4375 0.09375 0  0.453125 0.09375 0  0.46875 0.09375 0  0.484375 0.09375 0  0.5 0.09375 0  0.515625 0.09375 0  0.53125 0.09375 0  0.546875 0.09375 0  0.5625 0.09375 0  0.578125 0.09375 0  0.59375 0.09375 0  0.609375 0.09375 0  0.625 0.09375 0  0.640625 0.09375 0  0.65625 0.09375 0  0.671875 0.09375 0  0.6875 0.09375 0  0.703125 0.09375 0  0.71875 0.09375 0  0.734375 0.09375 0  0.75 0.09375 0  0.765625 0.09375 0  0.78125 0.09375 0  0.796875 0.09375 0  0.8125 0.09375 0  0.828125 0.09375 0  0.84375 0.09375 0  0.859375 0.09375 0  0.875 0.09375 0  0.890625 0.09375 0  0.90625 0.09375 0  0.921875 0.09375 0  0.9375 0.09375 0  0.953125 0.09375 0  0.96875 0.09375 0  0.984375 0.09375 0  1 0.09375 0  0 0.109375 0  0.015625 0.109375 0  0.03125 0.109375 0  0.046875 0.109375 0  0.0625 0.109375 0  0.078125 0.109375 0  0.09375 0.109375 0  0.109375 0.109375 0  0.125 0.109375 0  0.140625 0.109375 0  0.15625 0.109375 0  0.171875 0.109375 0  0.1875 0.109375 0  0.203125 0.109375 0  0.21875 0.109375 0  0.234375 0.109375 0  0.25 0.109375 0  0.265625 0.109375 0  0.28125 0.109375 0  0.296875 0.109375 0  0.3125 0.109375 0  0.328125 0.109375 0  0.34375 0.109375 0  0.359375 0.109375 0  0.375 0.109375 0  0.390625 0.109375 0  0.40625 0.109375 0  0.421875 0.109375 0  0.4375 0.109375 0  0.453125 0.109375 0  0.46875 0.109375 0  0.484375 0.109375 0  0.5 0.109375 0  0.515625 0.109375 0  0.53125 0.109375 0  0.546875 0.109375 0  0.5625 0.109375 0  0.578125 0.109375 0  0.59375 0.109375 0  0.609375 0.109375 0  0.625 0.109375 0  0.640625 0.109375 0  0.65625 0.109375 0  0.671875 0.109375 0  0.6875 0.109375 0  0.703125 0.109375 0  0.71875 0.109375 0  0.734375 0.109375 0  0.75 0.109375 0  0.765625 0.109375 0  0.78125 0.109375 0  0.796875 0.109375 0  0.8125 0.109375 0  0.828125 0.109375 0  0.84375 0.109375 0  0.859375 0.109375 0  0.875 0.109375 0  0.890625 0.109375 0  0.90625 0.109375 0  0.921875 0.109375 0  0.9375 0.109375 0  0.953125 0.109375 0  0.96875 0.109375 0  0.984375 0.109375 0  1 0.109375 0  0 0.125 0  0.015625 0.125 0  0.03125 0.125 0  0.046875 0.125 0  0.0625 0.125 0  0.078125 0.125 0  0.09375 0.125 0  0.109375 0.125 0  0.125 0.12
[...]
<PointData  Scalars="f_12"> 
<DataArray  type="Float64"  Name="f_12"  format="ascii">6.3202334313433561e-01  6.3202334495051715e-01  6.3202335039509960e-01  6.3202335945489085e-01  6.3202337210806170e-01  6.3202338832413130e-01  6.3202340806403701e-01  6.3202343128022886e-01  6.3202345791678316e-01  6.3202348790953689e-01  6.3202352118624328e-01  6.3202355766674401e-01  6.3202359726316382e-01  6.3202363988012145e-01  6.3202368541495912e-01  6.3202373375799048e-01  6.3202378479276367e-01  6.3202383839634269e-01  6.3202389443960327e-01  6.3202395278754331e-01  6.3202401329960867e-01  6.3202407583003140e-01  6.3202414022818099e-01  6.3202420633892653e-01  6.3202427400301098e-01  6.3202434305743482e-01  6.3202441333584791e-01  6.3202448466895089e-01  6.3202455688490256e-01  6.3202462980973406e-01  6.3202470326776738e-01  6.3202477708203952e-01  6.3202485107472772e-01  6.3202492506757846e-01  6.3202499888233632e-01  6.3202507234117433e-01  6.3202514526712139e-01  6.3202521748448914e-01  6.3202528881929509e-01  6.3202535909968205e-01  6.3202542815633167e-01  6.3202549582287282e-01  6.3202556193628245e-01  6.3202562633727810e-01  6.3202568887070210e-01  6.3202574938589517e-01  6.3202580773705974e-01  6.3202586378361092e-01  6.3202591739051561e-01  6.3202596842861791e-01  6.3202601677495018e-01  6.3202606231302960e-01  6.3202610493313882e-01  6.3202614453259043e-01  6.3202618101597452e-01  6.3202621429538841e-01  6.3202624429064902e-01  6.3202627092948516e-01  6.3202629414771305e-01  6.3202631388938968e-01  6.3202633010694831e-01  6.3202634276131275e-01  6.3202635182198985e-01  6.3202635726714029e-01  6.3202635908353222e-01  6.3202333520204512e-01  6.3202333701828162e-01  6.3202334246335201e-01  6.3202335152391131e-01  6.3202336417813210e-01  6.3202338039553174e-01  6.3202340013704494e-01  6.3202342335511785e-01  6.3202344999382232e-01  6.3202347998899033e-01  6.3202351326836881e-01  6.3202354975179376e-01  6.3202358935138248e-01  6.3202363197174605e-01  6.3202367751021882e-01  6.3202372585710520e-01  6.3202377689594469e-01  6.3202383050379107e-01  6.3202388655150998e-01  6.3202394490408864e-01  6.3202400542096182e-01  6.3202406795634991e-01  6.3202413235961030e-01  6.3202419847559999e-01  6.3202426614504947e-01  6.3202433520494605e-01  6.3202440548892658e-01  6.3202447682767815e-01  6.3202454904934613e-01  6.3202462197994780e-01  6.3202469544379136e-01  6.3202476926389961e-01  6.3202484326243580e-01  6.3202491726113252e-01  6.3202499108172028e-01  6.3202506454635776e-01  6.3202513747806000e-01  6.3202520970112497e-01  6.3202528104155620e-01  6.3202535132748305e-01  6.3202542038957377e-01  6.3202548806144399e-01  6.3202555418005801e-01  6.3202561858612083e-01  6.3202568112446234e-01  6.3202574164441139e-01  6.3202580000015918e-01  6.3202585605110950e-01  6.3202590966221872e-01  6.3202596070432093e-01  6.3202600905443851e-01  6.3202605459607974e-01  6.3202609721951852e-01  6.3202613682205966e-01  6.3202617330828548e-01  6.3202620659028663e-01  6.3202623658787349e-01  6.3202626322876976e-01  6.3202628644878622e-01  6.3202630619197597e-01  6.3202632241076850e-01  6.3202633506608497e-01  6.3202634412743153e-01  6.3202634957297232e-01  6.3202635138937835e-01  6.3202331142414248e-01  6.3202331324057381e-01  6.3202331868694250e-01  6.3202332774964942e-01  6.3202334040686592e-01  6.3202335662810305e-01  6.3202337637428729e-01  6.3202339959785325e-01  6.3202342624286012e-01  6.3202345624512457e-01  6.3202348953237675e-01  6.3202352602443368e-01  6.3202356563339179e-01  6.3202360826383985e-01  6.3202365381308800e-01  6.3202370217141479e-01  6.3202375322233195e-01  6.3202380684286474e-01  6.3202386290384782e-01  6.3202392127023699e-01  6.3202398180143349e-01  6.3202404435162352e-01  6.3202410877012882e-01  6.3202417490176965e-01  6.3202424258723877e-01  6.3202431166348505e-01  6.3202438196410626e-01  6.3202445331974921e-01  6.3202452555851851e-01  6.3202459850639048e-01  6.3202467198763168e-01  6.3202474582522317e-01  6.3202481984128589e-01  6.3202489385751004e-01  6.3202496769558425e-01  6.3202504117762492e-01  6.3202511412660545e-01  6.3202518636678151e-01  6.3202525772411577e-01  6.3202532802669675e-01  6.3202539710515271e-01  6.3202546479305965e-01  6.3202553092734315e-01  6.3202559534867031e-01  6.3202565790183429e-01  6.3202571843612843e-01  6.3202577680570871e-01  6.3202583286994596e-01  6.3202588649376445e-01  6.3202593754796721e-01  6.3202598590954773e-01  6.3202603146198655e-01  6.3202607409553158e-01  6.3202611370746276e-01  6.3202615020234021e-01  6.3202618349223338e-01  6.3202621349693389e-01  6.3202624014414799e-01  6.3202626336967149e-01  6.3202628311754405e-01  6.3202629934018451e-01  6.3202631199850534e-01  6.3202632106200707e-01  6.3202632650885426e-01  6.3202632832547356e-01  6.3202327185793572e-01  6.3202327367484334e-01  6.3202327912335987e-01  6.3202328818963682e-01  6.3202330085183644e-01  6.3202331707945902e-01  6.3202333683341516e-01  6.3202336006612148e-01  6.3202338672161518e-01  6.3202341673568818e-01  6.3202345003604188e-01  6.3202348654246210e-01  6.3202352616701074e-01  6.3202356881423938e-01  6.3202361438141752e-01  6.3202366275878075e-01  6.3202371382979505e-01  6.3202376747143751e-01  6.3202382355449227e-01  6.3202388194386161e-01  6.3202394249889193e-01  6.3202400507371193e-01  6.3202406951758416e-01  6.3202413567526816e-01  6.3202420338739373e-01  6.3202427249084592e-01  6.3202434281915643e-01  6.3202441420290623e-01  6.3202448647013199e-01  6.3202455944674130e-01  6.3202463295693190e-01  6.3202470682361489e-01  6.3202478086884106e-01  6.3202485491423077e-01  6.3202492878140215e-01  6.3202500229240144e-01  6.3202507527013185e-01  6.3202514753878059e-01  6.3202521892424135e-01  6.3202528925453449e-01  6.3202535836022167e-01  6.3202542607481327e-01  6.3202549223517024e-01  6.3202555668189719e-01  6.3202561925972556e-01  6.3202567981788915e-01  6.3202573821048658e-01  6.3202579429683292e-01  6.3202584794179906e-01  6.3202589901613704e-01  6.3202594739679174e-01  6.3202599296719741e-01  6.3202603561755866e-01  6.3202607524511489e-01  6.3202611175438816e-01  6.3202614505741361e-01  6.3202617507395087e-01  6.3202620173167767e-01  6.3202622496636451e-01  6.3202624472202917e-01  6.3202626095107162e-01  6.3202627361438946e-01  6.3202628268147198e-01  6.3202628813047435e-01  6.3202628994758725e-01  6.3202321659890681e-01  6.3202321841657483e-01  6.3202322386808696e-01  6.3202323293934715e-01  6.3202324560850542e-01  6.3202326184504465e-01  6.3202328160985499e-01  6.3202330485532687e-01  6.3202333152546664e-01  6.3202336155603123e-01  6.3202339487468284e-01  6.3202343140116279e-01  6.3202347104748557e-01  6.3202351371814980e-01  6.3202355931036902e-01  6.3202360771431887e-01  6.3202365881340117e-01  6.3202371248452571e-01  6.3202376859840559e-01  6.3202382701986937e-01  6.3202388760818617e-01  6.3202395021740465e-01  6.3202401469670488e-01  6.3202408089076079e-01  6.3202414864011502e-01  6.3202421778156292e-01  6.3202428814854505e-01  6.3202435957154890e-01  6.3202443187851709e-01  6.3202450489526141e-01  6.3202457844588278e-01  6.3202465235319527e-01  6.3202472643915175e-01  6.3202480052527421e-01  6.3202487443308264e-01  6.3202494798452569e-01  6.3202502100240898e-01  6.3202509331082279e-01  6.3202516473556514e-01  6.3202523510456143e-01  6.3202530424827996e-01  6.3202537200013953e-01  6.3202543819691115e-01  6.3202550267911117e-01  6.3202556529138620e-01  6.3202562588288624e-01  6.3202568430762962e-01  6.3202574042485371e-01  6.3202579409935489e-01  6.3202584520181393e-01  6.3202589360910755e-01  6.3202593920460592e-01  6.3202598187845282e-01  6.3202602152783105e-01  6.3202605805721002e-01  6.3202609137857590e-01  6.3202612141164438e-01  6.3202614808405322e-01  6.3202617133153727e-01  6.3202619109808367e-01  6.3202620733606651e-01  6.3202622000636144e-01  6.3202622907844119e-01  6.3202623453044782e-01  6.3202623634833821e-01  6.3202314578041208e-01  6.3202314759912337e-01  6.3202315305447299e-01  6.3202316213211807e-01  6.3202317481019299e-01  6.3202319105815929e-01  6.3202321083687951e-01  6.3202323409871086e-01  6.3202326078762050e-01  6.3202329083932007e-01  6.3202332418142126e-01  6.3202336073360932e-01  6.3202340040783656e-01  6.3202344310853509e-01  6.3202348873284597e-01  6.3202353717086790e-01  6.3202358830592109e-01  6.3202364201482863e-01  6.3202369816821291e-01  6.3202375663080756e-01  6.3202381726178303e-01  6.3202387991508524e-01  6.3202394443978827e-01  6.3202401068045699e-01  6.3202407847752218e-01  6.3202414766766379e-01  6.3202421808420584e-01  6.3202428955751622e-01  6.3202436191541655e-01  6.3202443498359628e-01  6.3202450858603232e-01  6.3202458254541360e-01  6.3202465668356833e-01  6.3202473082189226e-01  6.3202480478177969e-01  6.3202487838505372e-01  6.3202495145439541e-01  6.3202502381377046e-01  6.3202509528885420e-01  6.3202516570745093e-01  6.3202523489990892e-01  6.3202530269952961e-01  6.3202536894296868e-01  6.3202543347063000e-01  6.3202549612705006e-01  6.3202555676127281e-01  6.3202561522721301e-01  6.3202567138400889e-01  6.3202572509636090e-01  6.3202577623485867e-01  6.3202582467629176e-01  6.3202587030394786e-01  6.3202591300789313e-01  6.3202595268523742e-01  6.3202598924038278e-01  6.3202602258525320e-01  6.3202605263950717e-01  6.3202607933073163e-01  6.3202610259461589e-01  6.3202612237510758e-01  6.3202613862454693e-01  6.3202615130378226e-01  6.3202616038226378e-01  6.3202616583811855e-01  6.3202616765706976e-01  6.3202305957335614e-01  6.3202306139339148e-01  6.3202306685341159e-01  6.3202307593882812e-01  6.3202308862775658e-01  6.3202310488963243e-01  6.3202312468528454e-01  6.3202314796702963e-01  6.3202317467878710e-01  6.3202320475621399e-01  6.3202323812685990e-01  6.3202327471034159e-01  6.3202331441853665e-01  6.3202335715579505e-01  6.3202340281917058e-01  6.3202345129866788e-01  6.3202350247750760e-01  6.3202355623240758e-01  6.3202361243387972e-01  6.3202367094654233e-01  6.3202373162944514e-01  6.3202379433640954e-01  6.3202385891638058e-01  6.3202392521379025e-01  6.3202399306893253e-01  6.3202406231834840e-01  6.3202413279521852e-01  6.3202420432976625e-01  6.3202427674966544e-01  6.3202434988045608e-01  6.3202442354596500e-01  6.3202449756872903e-01  6.3202457177042337e-01  6.3202464597229102e-01  6.3202471999557319e-01  6.3202479366194031e-01  6.3202486679392089e-01  6.3202493921533009e-01  6.3202501075169359e-01  6.3202508123066781e-01  6.3202515048245544e-01  6.3202521834021475e-01  6.3202528464046115e-01  6.3202534922346143e-01  6.3202541193361861e-01  6.3202547261984665e-01  6.3202553113593507e-01  6.3202558734090075e-01  6.3202564109932802e-01  6.3202569228169481e-01  6.3202574076468521e-01  6.3202578643148621e-01  6.3202582917206951e-01  6.3202586888345635e-01  6.3202590546996651e-01  6.3202593884344815e-01  6.3202596892349094e-01  6.3202599563761908e-01  6.3202601892146670e-01  6.3202603871893326e-01  6.3202605498231779e-01  6.3202606767243474e-01  6.3202607675870848e-01  6.3202608221924605e-01  6.3202608403953953e-01  6.3202295818577647e-01  6.3202296000741354e-01  6.3202296547292625e-01  6.3202297456748213e-01  6.3202298726917461e-01  6.3202300354740870e-01  6.3202302336297378e-01  6.3202304666813891e-01  6.3202307340676700e-01  6.3202310351445101e-01  6.3202313691866763e-01  6.3202317353895310e-01  6.3202321328709654e-01  6.3202325606735232e-01  6.3202330177667077e-01  6.3202335030494627e-01  6.3202340153528214e-01  6.3202345534427262e-01  6.3202351160229997e-01  6.3202357017384614e-01  6.3202363091781943e-01  6.3202369368789479e-01  6.3202375833286506e-01  6.3202382469700635e-01  6.3202389262045200e-01  6.3202396193957855e-01  6.3202403248739936e-01  6.3202410409396648e-01  6.3202417658678101e-01  6.3202424979120708e-01  6.3202432353089433e-01  6.3202439762820106e-01  6.3202447190462296e-01  6.3202454618122295e-01  6.3202462027906214e-01  6.3202469401963124e-01  6.3202476722528012e-01  6.3202483971964640e-01  6.3202491132807925e-01  6.3202498187806200e-01  6.3202505119962582e-01  6.3202511912576043e-01  6.3202518549281661e-01  6.3202525014089972e-01  6.3202531291425568e-01  6.3202537366164613e-01  6.3202543223671237e-01  6.3202548849832940e-01  6.3202554231094454e-01  6.3202559354490495e-01  6.3202564207676981e-01  6.3202568778960810e-01  6.3202573057328038e-01  6.3202577032470375e-01  6.3202580694810140e-01  6.3202584035523202e-01  6.3202587046560399e-01  6.3202589720666846e-01  6.3202592051399431e-01  6.3202594033142412e-01  6.3202595661120875e-01  6.3202596931412303e-01  6.3202597840955999e-01  6.3202598387560460e-01  6.3202598569751844e-01  6.3202284186233881e-01  6.3202284368585171e-01  6.3202284915766571e-01  6.3202285826270677e-01  6.3202287097904331e-01  6.3202288727604472e-01  6.3202290711445563e-01  6.3202293044649027e-01  6.3202295721594703e-01  6.3202298735834450e-01  6.3202302080107642e-01  6.3202305746358667e-01  6.3202309725756278e-01  6.3202314008714910e-01  6.3202318584917760e-01  6.3202323443341579e-01  6.3202328572283306e-01  6.3202333959388146e-01  6.3202339591679391e-01  6.3202345455589692e-01  6.3202351536993628e-01  6.3202357821241817e-01  6.3202364293196189e-01  6.3202370937266372e-01  6.3202377737447346e-01  6.3202384677357870e-01  6.3202391740280051e-01  6.3202398909199542e-01  6.3202406166846503e-01  6.3202413495737297e-01  6.3202420878216459e-01  6.3202428296499369e-01  6.3202435732715001e-01  6.3202443168948985e-01  6.3202450587286785e-01  6.3202457969856851e-01  6.3202465298873678e-01  6.3202472556680589e-01  6.3202479725792393e-01  6.3202486788937418e-01  6.3202493729099174e-01  6.3202500529557315e-01  6.3202507173927969e-01  6.3202513646203196e-01  6.3202519930789558e-01  6.3202526012545701e-01  6.3202531876818846e-01  6.3202537509480117e-01  6.3202542896958569e-01  6.3202548026273908e-01  6.3202552885067731e-01  6.3202557461633391e-01  6.3202561744944197e-01  6.3202565724679916e-01  6.3202569391251728e-01  6.3202572735825313e-01  6.3202575750342160e-01  6.3202578427538969e-01  6.3202580760965177e-01  6.3202582744998503e-01  6.3202584374858495e-01  6.3202585646618104e-01  6.3202586557213059e-01  6.3202587104449304e-01  6.3202587286830147e-01  6.3202271088374407e-01  6.3202271270940180e-01  6.3202271818831079e-01  6.3202272730515774e-01  6.3202274003798253e-01  6.3202275635611538e-01  6.3202277622024983e-01  6.3202279958253815e-01  6.3202282638670659e-01  6.3202285656819035e-01  6.3202289005428924e-01  6.3202292676434280e-01  6.3202296660992463e-01  6.3202300949505552e-01  6.3202305531643332e-01  6.3202310396368377e-01  6.3202315531962439e-01  6.3202320926054767e-01  6.3202326565651867e-01  6.3202332437168796e-01  6.3202338526461899e-01  6.3202344818862821e-01  6.3202351299213877e-01  6.3202357951904531e-01  6.3202364760908991e-01  6.3202371709824834e-01  6.3202378781912494e-01  6.3202385960135543e-01  6.3202393227201803e-01  6.3202400565604899e-01  6.3202407957666518e-01  6.3202415385578947e-01  6.3202422831447957e-01  6.3202430277335941e-01  6.3202437705305115e-01  6.3202445097460691e-01  6.3202452435994061e-01  6.3202459703225622e-01  6.3202466881647468e-01  6.3202473953965455e-01  6.3202480903140967e-01  6.3202487712431932e-01  6.3202494365433148e-01  6.3202500846115850e-01  6.3202507138866304e-01  6.3202513228523449e-01  6.3202519100415455e-01  6.3202524740395016e-01  6.3202530134873502e-01  6.3202535270853744e-01  6.3202540135961216e-01  6.3202544718474052e-01  6.3202549007351128e-01  6.3202552992258798e-01  6.3202556663595755e-01  6.3202560012516151e-01  6.3202563030950942e-01  6.3202565711627390e-01  6.3202568048086483e-01  6.3202570034698646e-01  6.3202571666677165e-01  6.3202572940089852e-01  6.3202573851868449e-01  6.3202574399816036e-01  6.3202574582413318e-01  6.3202256556604663e-01  6.3202256739411355e-01  6.3202257288089392e-01  6.3202258201083861e-01  6.3202259476195632e-01  6.3202261110353308e-01  6.3202263099620626e-01  6.3202265439205985e-01  6.3202268123473915e-01  6.3202271145958711e-01  6.3202274499379929e-01  6.3202278175660009e-01  6.3202282165943613e-01  6.3202286460619062e-01  6.3202291049341397e-01  6.3202295921057317e-01  6.3202301064031829e-01  6.3202306465876423e-01  6.3202312113579007e-01  6.3202317993535151e-01  6.3202324091580908e-01  6.3202330393026884e-01  6.3202336882693666e-01  6.3202343544948303e-01  6.3202350363742010e-01  6.3202357322648817e-01  6.3202364404905131e-01  6.3202371593450046e-01  6.3202378870966536e-01  6.3202386219923090e-01  6.3202393622615982e-01  6.3202401061211899e-01  6.3202408517790876e-01  6.3202415974389525e-01  6.3202423413044218e-01  6.3202430815834465e-01  6.3202438164925989e-01  6.3202445442613764e-01  6.3202452631364636e-01  6.3202459713859593e-01  6.3202466673035440e-01  6.3202473492125988e-01  6.3202480154702401e-01  6.3202486644712785e-01  6.3202492946520916e-01  6.3202499044943861e-01  6.3202504925288605e-01  6.3202510573387449e-01  6.3202515975632167e-01  6.3202521119006783e-01  6.3202525991118963e-01  6.3202530580229865e-01  6.3202534875282468e-01  6.3202538865928193e-01  6.3202542542551832e-01  6.3202545896294759e-01  6.3202548919076329e-01  6.3202551603613244e-01  6.3202553943437190e-01  6.3202555932910398e-01  6.3202557567239304e-01  6.3202558842485990e-01  6.3202559755577781e-01  6.3202560304314570e-01  6.3202560487154724e-01  6.3202240625988815e-01  6.3202240809062271e-01  6.3202241358603184e-01  6.3202242273033482e-01  6.3202243550150572e-01  6.3202245186878248e-01  6.3202247179274085e-01  6.3202249522538945e-01  6.3202252211028564e-01  6.3202255238267080e-01  6.3202258596962657e-01  6.3202262279025034e-01  6.3202266275585040e-01  6.3202270577015884e-01  6.3202275172956424e-01  6.3202280052336013e-01  6.3202285203401198e-01  6.3202290613744128e-01  6.3202296270332203e-01  6.3202302159539703e-01  6.3202308267180407e-01  6.3202314578541896e-01  6.3202321078420876e-01  6.3202327751159881e-01  6.3202334580684905e-01  6.3202341550544161e-01  6.3202348643947681e-01  6.3202355843807778e-01  6.3202363132780182e-01  6.3202370493305804e-01  6.3202377907653062e-01  6.3202385357960567e-01  6.3202392826280196e-01  6.3202400294620220e-01  6.3202407744988776e-01  6.3202415159437098e-01  6.3202422520102830e-01  6.3202429809253069e-01  6.3202437009326984e-01  6.3202444102978261e-01  6.3202451073116839e-01  6.3202457902950027e-01  6.3202464576023099e-01  6.3202471076258826e-01  6.3202477387996292e-01  6.3202483496028594e-01  6.3202489385639526e-01  6.3202495042639006e-01  6.3202500453397337e-01  6.3202505604877923e-01  6.3202510484668895e-01  6.3202515081012844e-01  6.3202519382835254e-01  6.3202523379771214e-01  6.3202527062190295e-01  6.3202530421219882e-01  6.3202533448766507e-01  6.3202536137535392e-01  6.3202538481047976e-01  6.3202540473657576e-01  6.3202542110563031e-01  6.3202543387820198e-01  6.3202544302351527e-01  6.3202544851953457e-01  6.3202545035062374e-01  6.3202223334964835e-01  6.3202223518330236e-01  6.3202224068807678e-01  6.3202224984796374e-01  6.3202226264089967e-01  6.3202227903607011e-01  6.3202229899398432e-01  6.3202232246656909e-01  6.3202234939728597e-01  6.3202237972126640e-01  6.3202241336546805e-01  6.3202245024885106e-01  6.3202249028257307e-01  6.3202253337020242e-01  6.3202257940795170e-01  6.3202262828492628e-01  6.3202267988339200e-01  6.3202273407905885e-01  6.3202279074138001e-01  6.3202284973386602e-01  6.3202291091441365e-01  6.3202297413564801e-01  6.3202303924527792e-01  6.3202310608646173e-01  6.3202317449818601e-01  6.3202324431565271e-01  6.3202331537067613e-01  6.3202338749208831e-01  6.3202346050615088e-01  6.3202353423697388e-01  6.3202360850693917e-01  6.3202368313712820e-01  6.3202375794775334e-01  6.3202383275859075e-01  6.3202390738941450e-01  6.3202398166043072e-01  6.3202405539271089e-01  6.3202412840862277e-01  6.3202420053225861e-01  6.3202427158985863e-01  6.3202434141023001e-01  6.3202440982515917e-01  6.3202447666981698e-01  6.3202454178315670e-01  6.3202460500830115e-01  6.3202466619292097e-01  6.3202472518960251e-01  6.3202478185620203e-01  6.3202483605618875e-01  6.3202488765897435e