<?xml version="1.0"?>
<VTKFile type="UnstructuredGrid"  version="0.1"  >
<UnstructuredGrid>
<Piece  NumberOfPoints="4225" NumberOfCells="8192">
<Points>
<DataArray  type="Float64"  NumberOfComponents="3"  format="ascii">0 0 0  0.015625 0 0  0.03125 0 0  0.046875 0 0  0.0625 0 0  0.078125 0 0  0.09375 0 0  0.109375 0 0  0.125 0 0  0.140625 0 0  0.15625 0 0  0.171875 0 0  0.1875 0 0  0.203125 0 0  0.21875 0 0  0.234375 0 0  0.25 0 0  0.265625 0 0  0.28125 0 0  0.296875 0 0  0.3125 0 0  0.328125 0 0  0.34375 0 0  0.359375 0 0  0.375 0 0  0.390625 0 0  0.40625 0 0  0.421875 0 0  0.4375 0 0  0.453125 0 0  0.46875 0 0  0.484375 0 0  0.5 0 0  0.515625 0 0  0.53125 0 0  0.546875 0 0  0.5625 0 0  0.578125 0 0  0.59375 0 0  0.609375 0 0  0.625 0 0  0.640625 0 0  0.65625 0 0  0.671875 0 0  0.6875 0 0  0.703125 0 0  0.71875 0 0  0.734375 0 0  0.75 0 0  0.765625 0 0  0.78125 0 0  0.796875 0 0  0.8125 0 0  0.828125 0 0  0.84375 0 0  0.859375 0 0  0.875 0 0  0.890625 0 0  0.90625 0 0  0.921875 0 0  0.9375 0 0  0.953125 0 0  0.96875 0 0  0.984375 0 0  1 0 0  0 0.015625 0  0.015625 0.015625 0  0.03125 0.015625 0  0.046875 0.015625 0  0.0625 0.015625 0  0.078125 0.015625 0  0.09375 0.015625 0  0.109375 0.015625 0  0.125 0.015625 0  0.140625 0.015625 0  0.15625 0.015625 0  0.171875 0.015625 0  0.1875 0.015625 0  0.203125 0.015625 0  0.21875 0.015625 0  0.234375 0.015625 0  0.25 0.015625 0  0.265625 0.015625 0  0.28125 0.015625 0  0.296875 0.015625 0  0.3125 0.015625 0  0.328125 0.015625 0  0.34375 0.015625 0  0.359375 0.015625 0  0.375 0.015625 0  0.390625 0.015625 0  0.40625 0.015625 0  0.421875 0.015625 0  0.4375 0.015625 0  0.453125 0.015625 0  0.46875 0.015625 0  0.484375 0.015625 0  0.5 0.015625 0  0.515625 0.015625 0  0.53125 0.015625 0  0.546875 0.015625 0  0.5625 0.015625 0  0.578125 0.015625 0  0.59375 0.015625 0  0.609375 0.015625 0  0.625 0.015625 0  0.640625 0.015625 0  0.65625 0.015625 0  0.671875 0.015625 0  0.6875 0.015625 0  0.703125 0.015625 0  0.71875 0.015625 0  0.734375 0.015625 0  0.75 0.015625 0  0.765625 0.015625 0  0.78125 0.015625 0  0.796875 0.015625 0  0.8125 0.015625 0  0.828125 0.015625 0  0.84375 0.015625 0  0.859375 0.015625 0  0.875 0.015625 0  0.890625 0.015625 0  0.90625 0.015625 0  0.921875 0.015625 0  0.9375 0.015625 0  0.953125 0.015625 0  0.96875 0.015625 0  0.984375 0.015625 0  1 0.015625 0  0 0.03125 0  0.015625 0.03125 0  0.03125 0.03125 0  0.046875 0.03125 0  0.0625 0.03125 0  0.078125 0.03125 0  0.09375 0.03125 0  0.109375 0.03125 0  0.125 0.03125 0  0.140625 0.03125 0  0.15625 0.03125 0  0.171875 0.03125 0  0.1875 0.03125 0  0.203125 0.03125 0  0.21875 0.03125 0  0.234375 0.03125 0  0.25 0.03125 0  0.265625 0.03125 0  0.28125 0.03125 0  0.296875 0.03125 0  0.3125 0.03125 0  0.328125 0.03125 0  0.34375 0.03125 0  0.359375 0.03125 0  0.375 0.03125 0  0.390625 0.03125 0  0.40625 0.03125 0  0.421875 0.03125 0  0.4375 0.03125 0  0.453125 0.03125 0  0.46875 0.03125 0  0.484375 0.03125 0  0.5 0.03125 0  0.515625 0.03125 0  0.53125 0.03125 0  0.546875 0.03125 0  0.5625 0.03125 0  0.578125 0.03125 0  0.59375 0.03125 0  0.609375 0.03125 0  0.625 0.03125 0  0.640625 0.03125 0  0.65625 0.03125 0  0.671875 0.03125 0  0.6875 0.03125 0  0.703125 0.03125 0  0.71875 0.03125 0  0.734375 0.03125 0  0.75 0.03125 0  0.765625 0.03125 0  0.78125 0.03125 0  0.796875 0.03125 0  0.8125 0.03125 0  0.828125 0.03125 0  0.84375 0.03125 0  0.859375 0.03125 0  0.875 0.03125 0  0.890625 0.03125 0  0.90625 0.03125 0  0.921875 0.03125 0  0.9375 0.03125 0  0.953125 0.03125 0  0.96875 0.03125 0  0.984375 0.03125 0  1 0.03125 0  0 0.046875 0  0.015625 0.046875 0  0.03125 0.046875 0  0.046875 0.046875 0  0.0625 0.046875 0  0.078125 0.046875 0  0.09375 0.046875 0  0.109375 0.046875 0  0.125 0.046875 0  0.140625 0.046875 0  0.15625 0.046875 0  0.171875 0.046875 0  0.1875 0.046875 0  0.203125 0.046875 0  0.21875 0.046875 0  0.234375 0.046875 0  0.25 0.046875 0  0.265625 0.046875 0  0.28125 0.046875 0  0.296875 0.046875 0  0.3125 0.046875 0  0.328125 0.046875 0  0.34375 0.046875 0  0.359375 0.046875 0  0.375 0.046875 0  0.390625 0.046875 0  0.40625 0.046875 0  0.421875 0.046875 0  0.4375 0.046875 0  0.453125 0.046875 0  0.46875 0.046875 0  0.484375 0.046875 0  0.5 0.046875 0  0.515625 0.046875 0  0.53125 0.046875 0  0.546875 0.046875 0  0.5625 0.046875 0  0.578125 0.046875 0  0.59375 0.046875 0  0.609375 0.046875 0  0.625 0.046875 0  0.640625 0.046875 0  0.65625 0.046875 0  0.671875 0.046875 0  0.6875 0.046875 0  0.703125 0.046875 0  0.71875 0.046875 0  0.734375 0.046875 0  0.75 0.046875 0  0.765625 0.046875 0  0.78125 0.046875 0  0.796875 0.046875 0  0.8125 0.046875 0  0.828125 0.046875 0  0.84375 0.046875 0  0.859375 0.046875 0  0.875 0.046875 0  0.890625 0.046875 0  0.90625 0.046875 0  0.921875 0.046875 0  0.9375 0.046875 0  0.953125 0.046875 0  0.96875 0.046875 0  0.984375 0.046875 0  1 0.046875 0  0 0.0625 0  0.015625 0.0625 0  0.03125 0.0625 0  0.046875 0.0625 0  0.0625 0.0625 0  0.078125 0.0625 0  0.09375 0.0625 0  0.109375 0.0625 0  0.125 0.0625 0  0.140625 0.0625 0  0.15625 0.0625 0  0.171875 0.0625 0  0.1875 0.0625 0  0.203125 0.0625 0  0.21875 0.0625 0  0.234375 0.0625 0  0.25 0.0625 0  0.265625 0.0625 0  0.28125 0.0625 0  0.296875 0.0625 0  0.3125 0.0625 0  0.328125 0.0625 0  0.34375 0.0625 0  0.359375 0.0625 0  0.375 0.0625 0  0.390625 0.0625 0  0.40625 0.0625 0  0.421875 0.0625 0  0.4375 0.0625 0  0.453125 0.0625 0  0.46875 0.0625 0  0.484375 0.0625 0  0.5 0.0625 0  0.515625 0.0625 0  0.53125 0.0625 0  0.546875 0.0625 0  0.5625 0.0625 0  0.578125 0.0625 0  0.59375 0.0625 0  0.609375 0.0625 0  0.625 0.0625 0  0.640625 0.0625 0  0.65625 0.0625 0  0.671875 0.0625 0  0.6875 0.0625 0  0.703125 0.0625 0  0.71875 0.0625 0  0.734375 0.0625 0  0.75 0.0625 0  0.765625 0.0625 0  0.78125 0.0625 0  0.796875 0.0625 0  0.8125 0.0625 0  0.828125 0.0625 0  0.84375 0.0625 0  0.859375 0.0625 0  0.875 0.0625 0  0.890625 0.0625 0  0.90625 0.0625 0  0.921875 0.0625 0  0.9375 0.0625 0  0.953125 0.0625 0  0.96875 0.0625 0  0.984375 0.0625 0  1 0.0625 0  0 0.078125 0  0.015625 0.078125 0  0.03125 0.078125 0  0.046875 0.078125 0  0.0625 0.078125 0  0.078125 0.078125 0  0.09375 0.078125 0  0.109375 0.078125 0  0.125 0.078125 0  0.140625 0.078125 0  0.15625 0.078125 0  0.171875 0.078125 0  0.1875 0.078125 0  0.203125 0.078125 0  0.21875 0.078125 0  0.234375 0.078125 0  0.25 0.078125 0  0.265625 0.078125 0  0.28125 0.078125 0  0.296875 0.078125 0  0.3125 0.078125 0  0.328125 0.078125 0  0.34375 0.078125 0  0.359375 0.078125 0  0.375 0.078125 0  0.390625 0.078125 0  0.40625 0.078125 0  0.421875 0.078125 0  0.4375 0.078125 0  0.453125 0.078125 0  0.46875 0.078125 0  0.484375 0.078125 0  0.5 0.078125 0  0.515625 0.078125 0  0.53125 0.078125 0  0.546875 0.078125 0  0.5625 0.078125 0  0.578125 0.078125 0  0.59375 0.078125 0  0.609375 0.078125 0  0.625 0.078125 0  0.640625 0.078125 0  0.65625 0.078125 0  0.671875 0.078125 0  0.6875 0.078125 0  0.703125 0.078125 0  0.71875 0.078125 0  0.734375 0.078125 0  0.75 0.078125 0  0.765625 0.078125 0  0.78125 0.078125 0  0.796875 0.078125 0  0.8125 0.078125 0  0.828125 0.078125 0  0.84375 0.078125 0  0.859375 0.078125 0  0.875 0.078125 0  0.890625 0.078125 0  0.90625 0.078125 0  0.921875 0.078125 0  0.9375 0.078125 0  0.953125 0.078125 0  0.96875 0.078125 0  0.984375 0.078125 0  1 0.078125 0  0 0.09375 0  0.015625 0.09375 0  0.03125 0.09375 0  0.046875 0.09375 0  0.0625 0.09375 0  0.078125 0.09375 0  0.09375 0.09375 0  0.109375 0.09375 0  0.125 0.09375 0  0.140625 0.09375 0  0.15625 0.09375 0  0.171875 0.09375 0  0.1875 0.09375 0  0.203125 0.09375 0  0.21875 0.09375 0  0.234375 0.09375 0  0.25 0.09375 0  0.265625 0.09375 0  0.28125 0.09375 0  0.296875 0.09375 0  0.3125 0.09375 0  0.328125 0.09375 0  0.34375 0.09375 0  0.359375 0.09375 0  0.375 0.09375 0  0.390625 0.09375 0  0.40625 0.09375 0  0.421875 0.09375 0  0.4375 0.09375 0  0.453125 0.09375 0  0.46875 0.09375 0  0.484375 0.09375 0  0.5 0.09375 0  0.515625 0.09375 0  0.53125 0.09375 0  0.546875 0.09375 0  0.5625 0.09375 0  0.578125 0.09375 0  0.59375 0.09375 0  0.609375 0.09375 0  0.625 0.09375 0  0.640625 0.09375 0  0.65625 0.09375 0  0.671875 0.09375 0  0.6875 0.09375 0  0.703125 0.09375 0  0.71875 0.09375 0  0.734375 0.09375 0  0.75 0.09375 0  0.765625 0.09375 0  0.78125 0.09375 0  0.796875 0.09375 0  0.8125 0.09375 0  0.828125 0.09375 0  0.84375 0.09375 0  0.859375 0.09375 0  0.875 0.09375 0  0.890625 0.09375 0  0.90625 0.09375 0  0.921875 0.09375 0  0.9375 0.09375 0  0.953125 0.09375 0  0.96875 0.09375 0  0.984375 0.09375 0  1 0.09375 0  0 0.109375 0  0.015625 0.109375 0  0.03125 0.109375 0  0.046875 0.109375 0  0.0625 0.109375 0  0.078125 0.109375 0  0.09375 0.109375 0  0.109375 0.109375 0  0.125 0.109375 0  0.140625 0.109375 0  0.15625 0.109375 0  0.171875 0.109375 0  0.1875 0.109375 0  0.203125 0.109375 0  0.21875 0.109375 0  0.234375 0.109375 0  0.25 0.109375 0  0.265625 0.109375 0  0.28125 0.109375 0  0.296875 0.109375 0  0.3125 0.109375 0  0.328125 0.109375 0  0.34375 0.109375 0  0.359375 0.109375 0  0.375 0.109375 0  0.390625 0.109375 0  0.40625 0.109375 0  0.421875 0.109375 0  0.4375 0.109375 0  0.453125 0.109375 0  0.46875 0.109375 0  0.484375 0.109375 0  0.5 0.109375 0  0.515625 0.109375 0  0.53125 0.109375 0  0.546875 0.109375 0  0.5625 0.109375 0  0.578125 0.109375 0  0.59375 0.109375 0  0.609375 0.109375 0  0.625 0.109375 0  0.640625 0.109375 0  0.65625 0.109375 0  0.671875 0.109375 0  0.6875 0.109375 0  0.703125 0.109375 0  0.71875 0.109375 0  0.734375 0.109375 0  0.75 0.109375 0  0.765625 0.109375 0  0.78125 0.109375 0  0.796875 0.109375 0  0.8125 0.109375 0  0.828125 0.109375 0  0.84375 0.109375 0  0.859375 0.109375 0  0.875 0.109375 0  0.890625 0.109375 0  0.90625 0.109375 0  0.921875 0.109375 0  0.9375 0.109375 0  0.953125 0.109375 0  0.96875 0.109375 0  0.984375 0.109375 0  1 0.109375 0  0 0.125 0  0.015625 0.125 0  0.03125 0.125 0  0.046875 0.125 0  0.0625 0.125 0  0.078125 0.125 0  0.09375 0.125 0  0.109375 0.125 0  0.125 0.12
[...]
<PointData  Scalars="f_12"> 
<DataArray  type="Float64"  Name="f_12"  format="ascii">6.3308912445447341e-01  6.3308923542758089e-01  6.3308956415091100e-01  6.3309009705742580e-01  6.3309081193764594e-01  6.3309167833816771e-01  6.3309265818034721e-01  6.3309370653675912e-01  6.3309477254917412e-01  6.3309580046985059e-01  6.3309673080566975e-01  6.3309750154263422e-01  6.3309804942663661e-01  6.3309831127523575e-01  6.3309822529447168e-01  6.3309773237455613e-01  6.3309677733855851e-01  6.3309531011901488e-01  6.3309328683867583e-01  6.3309067077339187e-01  6.3308743317737559e-01  6.3308355395375326e-01  6.3307902215638678e-01  6.3307383631235348e-01  6.3306800455817369e-01  6.3306154458677633e-01  6.3305448340624726e-01  6.3304685691549234e-01  6.3303870930599837e-01  6.3303009230276919e-01  6.3302106426116600e-01  6.3301168913967409e-01  6.3300203537146593e-01  6.3299217465994417e-01  6.3298218072514989e-01  6.3297212802896397e-01  6.3296209050736207e-01  6.3295214033762104e-01  6.3294234676728478e-01  6.3293277502996204e-01  6.3292348537065735e-01  6.3291453220043659e-01  6.3290596339686489e-01  6.3289781976293602e-01  6.3289013465324551e-01  6.3288293377204718e-01  6.3287623514368940e-01  6.3287004925186130e-01  6.3286437934018058e-01  6.3285922186304566e-01  6.3285456707240584e-01  6.3285039972327206e-01  6.3284669987845943e-01  6.3284344379124080e-01  6.3284060484335158e-01  6.3283815451511383e-01  6.3283606336433262e-01  6.3283430199103496e-01  6.3283284196603651e-01  6.3283165670265595e-01  6.3283072225261661e-01  6.3283001800918259e-01  6.3282952730277708e-01  6.3282923787643697e-01  6.3282914220994846e-01  6.3308670234433506e-01  6.3308681377659348e-01  6.3308714414106704e-01  6.3308767974198965e-01  6.3308839836765129e-01  6.3308926955881228e-01  6.3309025522926754e-01  6.3309131044284583e-01  6.3309238433168558e-01  6.3309342113776634e-01  6.3309436135725838e-01  6.3309514296521119e-01  6.3309570269648152e-01  6.3309597735762535e-01  6.3309590514378167e-01  6.3309542693437570e-01  6.3309448754175812e-01  6.3309303688770491e-01  6.3309103108399467e-01  6.3308843339506560e-01  6.3308521506299487e-01  6.3308135597772297e-01  6.3307684517850937e-01  6.3307168117602475e-01  6.3306587208817167e-01  6.3305943558664435e-01  6.3305239865527851e-01  6.3304479716533613e-01  6.3303667527691587e-01  6.3302808467957672e-01  6.3301908368890725e-01  6.3300973621906820e-01  6.3300011065418060e-01  6.3299027864374457e-01  6.3298031384897291e-01  6.3297029066796695e-01  6.3296028296799722e-01  6.3295036285277850e-01  6.3294059949155657e-01  6.3293105803506877e-01  6.3292179864108911e-01  6.3291287562935505e-01  6.3290433678231584e-01  6.3289622280442770e-01  6.3288856694874418e-01  6.3288139481544659e-01  6.3287472432281200e-01  6.3286856584704332e-01  6.3286292252350151e-01  6.3285779069825032e-01  6.3285316051556662e-01  6.3284901662423698e-01  6.3284533898311846e-01  6.3284210374463667e-01  6.3283928419365276e-01  6.3283685171845450e-01  6.3283477679051026e-01  6.3283302993004731e-01  6.3283158263542061e-01  6.3283040825558212e-01  6.3282948278668050e-01  6.3282878557584110e-01  6.3282829991744527e-01  6.3282801352972429e-01  6.3282791884797251e-01  6.3307945056263082e-01  6.3307956339612437e-01  6.3307989853792102e-01  6.3308044208266767e-01  6.3308117180946077e-01  6.3308205724361211e-01  6.3308306027889327e-01  6.3308413595545654e-01  6.3308523337881795e-01  6.3308629676202877e-01  6.3308726657062020e-01  6.3308808074782696e-01  6.3308867599596330e-01  6.3308898908864997e-01  6.3308895818789757e-01  6.3308852413984973e-01  6.3308763172329618e-01  6.3308623082586923e-01  6.3308427752414265e-01  6.3308173504564536e-01  6.3307857459304528e-01  6.3307477601344941e-01  6.3307032829883436e-01  6.3306522990703917e-01  6.3305948889645158e-01  6.3305312287142634e-01  6.3304615873952230e-01  6.3303863228573165e-01  6.3303058757291930e-01  6.3302207618157813e-01  6.3301315630565225e-01  6.3300389172446347e-01  6.3299435067362120e-01  6.3298460464010142e-01  6.3297472710837888e-01  6.3296479228553681e-01  6.3295487383361326e-01  6.3294504363707249e-01  6.3293537063221439e-01  6.3292591972358914e-01  6.3291675081012688e-01  6.3290791794078727e-01  6.3289946861617663e-01  6.3289144324886026e-01  6.3288387479113239e-01  6.3287678853489160e-01  6.3287020208412070e-01  6.3286412549640492e-01  6.3285856158601550e-01  6.3285350637747229e-01  6.3284894969521976e-01  6.3284487587222604e-01  6.3284126455795753e-01  6.3283809160438376e-01  6.3283533000740622e-01  6.3283295088043590e-01  6.3283092443672151e-01  6.3282922095744665e-01  6.3282781172351865e-01  6.3282666989032055e-01  6.3282577128641415e-01  6.3282509511922691e-01  6.3282462457307664e-01  6.3282434728755466e-01  6.3282425558696243e-01  6.3306741300781599e-01  6.3306752829014623e-01  6.3306787134804088e-01  6.3306842806950769e-01  6.3306917621356329e-01  6.3307008527883613e-01  6.3307111712584840e-01  6.3307222675577335e-01  6.3307336323039420e-01  6.3307447071527012e-01  6.3307548962563442e-01  6.3307635785248395e-01  6.3307701204467892e-01  6.3307738892170939e-01  6.3307742659109012e-01  6.3307706584415935e-01  6.3307625140436430e-01  6.3307493310294216e-01  6.3307306695821608e-01  6.3307061613652948e-01  6.3306755177510488e-01  6.3306385364980544e-01  6.3305951067386002e-01  6.3305452121703554e-01  6.3304889323843927e-01  6.3304264423005063e-01  6.3303580097211698e-01  6.3302839910564190e-01  6.3302048253122190e-01  6.3301210264737640e-01  6.3300331744514615e-01  6.3299419047901562e-01  6.3298478973704653e-01  6.3297518643541384e-01  6.3296545376422553e-01  6.3295566561254435e-01  6.3294589530086698e-01  6.3293621434894320e-01  6.3292669130574475e-01  6.3291739066665398e-01  6.3290837190058447e-01  6.3289968860684764e-01  6.3289138781822241e-01  6.3288350946296945e-01  6.3287608599456335e-01  6.3286914219379820e-01  6.3286269514377924e-01  6.3285675437422662e-01  6.3285132216762463e-01  6.3284639401611020e-01  6.3284195921472497e-01  6.3283800157380654e-01  6.3283450023094734e-01  6.3283143054112267e-01  6.3282876502234309e-01  6.3282647433349282e-01  6.3282452826089652e-01  6.3282289669056313e-01  6.3282155054396105e-01  6.3282046265652026e-01  6.3281960857977881e-01  6.3281896729013520e-01  6.3281852178946063e-01  6.3281825958527382e-01  6.3281817286168596e-01  6.3305066254040554e-01  6.3305078130549097e-01  6.3305113536689994e-01  6.3305171040776553e-01  6.3305248415957138e-01  6.3305342608396398e-01  6.3305449799575109e-01  6.3305565484270687e-01  6.3305684562678233e-01  6.3305801444858367e-01  6.3305910165454971e-01  6.3306004506420144e-01  6.3306078125321241e-01  6.3306124686688958e-01  6.3306137993796729e-01  6.3306112118244839e-01  6.3306041524754653e-01  6.3305921188662206e-01  6.3305746703733712e-01  6.3305514378107086e-01  6.3305221316392091e-01  6.3304865486231521e-01  6.3304445767936091e-01  6.3303961986148360e-01  6.3303414922861723e-01  6.3302806311511828e-01  6.3302138812261910e-01  6.3301415969011066e-01  6.3300642149057607e-01  6.3299822466736411e-01  6.3298962692711680e-01  6.3298069150932956e-01  6.3297148605544507e-01  6.3296208140267640e-01  6.3295255032943565e-01  6.3294296628028190e-01  6.3293340209863258e-01  6.3292392879511439e-01  6.3291461437835905e-01  6.3290552277331147e-01  6.3289671284977067e-01  6.3288823758098400e-01  6.3288014334876719e-01  6.3287246940790665e-01  6.3286524751863105e-01  6.3285850175182556e-01  6.3285224846750421e-01  6.3284649646297508e-01  6.3284124728322289e-01  6.3283649568238964e-01  6.3283223022195345e-01  6.3282843398834676e-01  6.3282508541039351e-01  6.3282215915511664e-01  6.3281962707919615e-01  6.3281745921266952e-01  6.3281562475132713e-01  6.3281409303465819e-01  6.3281283448710535e-01  6.3281182150171855e-01  6.3281102924702282e-01  6.3281043637995338e-01  6.3281002564999389e-01  6.3280978438210844e-01  6.3280970459087349e-01  6.3302930033115135e-01  6.3302942358994452e-01  6.3302979166789397e-01  6.3303039004598705e-01  6.3303119642168881e-01  6.3303218021057339e-01  6.3303330317047302e-01  6.3303452018266104e-01  6.3303578017460660e-01  6.3303702716606403e-01  6.3303820141781275e-01  6.3303924066032480e-01  6.3304008137801016e-01  6.3304066012354421e-01  6.3304091483611469e-01  6.3304078613726045e-01  6.3304021857832449e-01  6.3303916181439479e-01  6.3303757168096453e-01  6.3303541115138184e-01  6.3303265115545526e-01  6.3302927124231279e-01  6.3302526007371229e-01  6.3302061573745438e-01  6.3301534587424968e-01  6.3300946761531685e-01  6.3300300733201709e-01  6.3299600020290669e-01  6.3298848960760001e-01  6.3298052636069890e-01  6.3297216780264354e-01  6.3296347676759679e-01  6.3295452045128087e-01  6.3294536920396216e-01  6.3293609527545946e-01  6.3292677154007704e-01  6.3291747022969480e-01  6.3290826170287839e-01  6.3289921327680909e-01  6.3289038814709486e-01  6.3288184441819140e-01  6.3287363426425847e-01  6.3286580323694264e-01  6.3285838973285768e-01  6.3285142462957067e-01  6.3284493109477968e-01  6.3283892456921209e-01  6.3283341291968087e-01  6.3282839675481617e-01  6.3282386989233830e-01  6.3281981996344072e-01  6.3281622913698155e-01  6.3281307494380912e-01  6.3281033117970065e-01  6.3280796886411372e-01  6.3280595723124489e-01  6.3280426472974127e-01  6.3280286000780628e-01  6.3280171286133002e-01  6.3280079512400755e-01  6.3280008148013167e-01  6.3279955018278022e-01  6.3279918366241628e-01  6.3279896901340016e-01  6.3279889805260459e-01  6.3300345502733313e-01  6.3300358376036259e-01  6.3300396877210408e-01  6.3300459534582043e-01  6.3300544113929769e-01  6.3300647551419631e-01  6.3300766016161614e-01  6.3300894988493051e-01  6.3301029352435645e-01  6.3301163500491087e-01  6.3301291448695529e-01  6.3301406959648365e-01  6.3301503671069514e-01  6.3301575227325568e-01  6.3301615411299972e-01  6.3301618273968374e-01  6.3301578259076785e-01  6.3301490320408504e-01  6.3301350029263426e-01  6.3301153669960109e-01  6.3300898321403443e-01  6.3300581923034749e-01  6.3300203323794668e-01  6.3299762313074182e-01  6.3299259633001270e-01  6.3298696971802138e-01  6.3298076938379588e-01  6.3297403018656639e-01  6.3296679514634313e-01  6.3295911467495902e-01  6.3295104566449401e-01  6.3294265045322640e-01  6.3293399569204867e-01  6.3292515113654979e-01  6.3291618839163100e-01  6.3290717963654242e-01  6.3289819635855427e-01  6.3288930812311051e-01  6.3288058140724857e-01  6.3287207852134608e-01  6.3286385664191536e-01  6.3285596697528834e-01  6.3284845406869139e-01  6.3284135528150087e-01  6.3283470042550916e-01  6.3282851157890041e-01  6.3282280307448124e-01  6.3281758165860458e-01  6.3281284681330063e-01  6.3280859123045941e-01  6.3280480142360029e-01  6.3280145845988245e-01  6.3279853879260983e-01  6.3279601517263639e-01  6.3279385761577001e-01  6.3279203440255893e-01  6.3279051308668122e-01  6.3278926148853998e-01  6.3278824865154859e-01  6.3278744573991774e-01  6.3278682685847631e-01  6.3278636977709768e-01  6.3278605654461551e-01  6.3278587397961406e-01  6.3278581367495046e-01  6.3297328169324552e-01  6.3297341684368480e-01  6.3297382159028748e-01  6.3297448102496778e-01  6.3297537276116844e-01  6.3297646610022962e-01  6.3297772265854313e-01  6.3297909715224920e-01  6.3298053832383283e-01  6.3298198999215061e-01  6.3298339220495969e-01  6.3298468247096795e-01  6.3298579704682456e-01  6.3298667225333993e-01  6.3298724579459287e-01  6.3298745805346346e-01  6.3298725333752148e-01  6.3298658105011196e-01  6.3298539676288457e-01  6.3298366316791455e-01  6.3298135088990437e-01  6.3297843914173735e-01  6.3297491620979240e-01  6.3297077975890437e-01  6.3296603695058096e-01  6.3296070437200525e-01  6.3295480777737867e-01  6.3294838164721112e-01  6.3294146857514977e-01  6.3293411849575909e-01  6.3292638777022836e-01  6.3291833815019882e-01  6.3291003564266424e-01  6.3290154930115494e-01  6.3289294997005929e-01  6.3288430900995052e-01  6.3287569703211022e-01  6.3286718267007336e-01  6.3285883141495580e-01  6.3285070453961711e-01  6.3284285813437269e-01  6.3283534227410365e-01  6.3282820033327425e-01  6.3282146846166853e-01  6.3281517522968844e-01  6.3280934144793843e-01  6.3280398016164863e-01  6.3279909681638224e-01  6.3279468958753493e-01  6.3279074986244876e-01  6.3278726286064280e-01  6.3278420837475891e-01  6.3278156161240950e-01  6.3277929411723721e-01  6.3277737474618478e-01  6.3277577067922786e-01  6.3277444843765229e-01  6.3277337488732266e-01  6.3277251820426039e-01  6.3277184878117010e-01  6.3277134005527225e-01  6.3277096923984899e-01  6.3277071794422601e-01  6.3277057266944781e-01  6.3277052476035489e-01  6.3293896053187049e-01  6.3293910299892842e-01  6.3293953014574900e-01  6.3294022688133322e-01  6.3294117077131784e-01  6.3294233105197883e-01  6.3294366925910062e-01  6.3294514001467372e-01  6.3294669195566422e-01  6.3294826878624477e-01  6.3294981043241372e-01  6.3295125427587684e-01  6.3295253644247274e-01  6.3295359311930643e-01  6.3295436187414689e-01  6.3295478295054619e-01  6.3295480051256481e-01  6.3295436381392334e-01  6.3295342826784606e-01  6.3295195639578883e-01  6.3294991863562566e-01  6.3294729399266536e-01  6.3294407052004120e-01  6.3294024561850304e-01  6.3293582614937538e-01  6.3293082835836889e-01  6.3292527761194928e-01  6.3291920795200951e-01  6.3291266147855307e-01  6.3290568757390064e-01  6.3289834198546691e-01  6.3289068578734409e-01  6.3288278424367461e-01  6.3287470559901671e-01  6.3286651982254982e-01  6.3285829733395849e-01  6.3285010773915529e-01  6.3284201860363609e-01  6.3283409429020288e-01  6.3282639488608272e-01  6.3281897524214981e-01  6.3281188414409417e-01  6.3280516363205741e-01  6.3279884848155787e-01  6.3279296585456801e-01  6.3278753512548325e-01  6.3278256788254839e-01  6.3277806810119475e-01  6.3277403248178521e-01  6.3277045094057582e-01  6.3276730723935359e-01  6.3276457973629907e-01  6.3276224223818178e-01  6.3276026493210802e-01  6.3275861537369771e-01  6.3275725950781303e-01  6.3275616269776225e-01  6.3275529073925840e-01  6.3275461083626627e-01  6.3275409251718773e-01  6.3275370847155377e-01  6.3275343528944117e-01  6.3275325408816674e-01  6.3275315101336127e-01  6.3275311714052063e-01  6.3290069539749838e-01  6.3290084603012586e-01  6.3290129808823870e-01  6.3290203630846709e-01  6.3290303820656546e-01  6.3290427295090923e-01  6.3290570199314167e-01  6.3290727985695028e-01  6.3290895506907840e-01  6.3291067121381339e-01  6.3291236808972018e-01  6.3291398294533907e-01  6.3291545176897923e-01  6.3291671060664279e-01  6.3291769688152288e-01  6.3291835068845448e-01  6.3291861603714827e-01  6.3291844201901681e-01  6.3291778387387698e-01  6.3291660393477978e-01  6.3291487243162925e-01  6.3291256813708641e-01  6.3290967884144333e-01  6.3290620164665845e-01  6.3290214307349035e-01  6.3289751897958990e-01  6.3289235429042068e-01  6.3288668254890612e-01  6.3288054529364524e-01  6.3287399127931121e-01  6.3286707555636290e-01  6.3285985843035331e-01  6.3285240432384182e-01  6.3284478056611371e-01  6.3283705613753261e-01  6.3282930039633523e-01  6.3282158181598447e-01  6.3281396676083590e-01  6.3280651832681356e-01  6.3279929527209122e-01  6.3279235106046916e-01  6.3278573303727792e-01  6.3277948175432885e-01  6.3277363045674551e-01  6.3276820474055029e-01  6.3276322238576010e-01  6.3275869336557322e-01  6.3275462002810046e-01  6.3275099744313945e-01  6.3274781390277679e-01  6.3274505156124672e-01  6.3274268719653470e-01  6.3274069307376446e-01  6.3273903788848418e-01  6.3273768776661277e-01  6.3273660729702275e-01  6.3273576057252356e-01  6.3273511221533962e-01  6.3273462836402605e-01  6.3273427760006751e-01  6.3273403179411936e-01  6.3273386685391342e-01  6.3273376335819098e-01  6.3273370706359877e-01  6.3273368875793190e-01  6.3285871211126243e-01  6.3285887170222022e-01  6.3285935101095447e-01  6.3286013461438673e-01  6.3286119997787826e-01  6.3286251620120149e-01  6.3286404465097590e-01  6.3286573975152627e-01  6.3286754991812477e-01  6.3286941861370083e-01  6.3287128550762117e-01  6.3287308771309259e-01  6.3287476107816731e-01  6.3287624150424393e-01  6.3287746626539787e-01  6.3287837530183333e-01  6.3287891246124139e-01  6.3287902666285822e-01  6.3287867296053946e-01  6.3287781348316241e-01  6.3287641823312624e-01  6.3287446572657180e-01  6.3287194346217268e-01  6.3286884820886180e-01  6.3286518610662068e-01  6.3286097257837970e-01  6.3285623205508001e-01  6.3285099751996421e-01  6.3284530988207521e-01  6.3283921719270020e-01  6.3283277372196745e-01  6.3282603891593936e-01  6.3281907625722544e-01  6.3281195205432028e-01  6.3280473418646288e-01  6.3279749083178660e-01  6.3279028920682445e-01  6.3278319434507069e-01  6.3277626794124553e-01  6.3276956728621436e-01  6.3276314431521929e-01  6.3275704478923367e-01  6.3275130762595233e-01  6.3274596439325037e-01  6.3274103897399403e-01  6.3273654740697105e-01  6.3273249790453068e-01  6.3272889104339591e-01  6.3272572012114103e-01  6.3272297166710390e-01  6.3272062609312973e-01  6.3271865846658104e-01  6.3271703938557844e-01  6.3271573593448982e-01  6.3271471269630919e-01  6.3271393279775290e-01  6.3271335896266934e-01  6.3271295454967280e-01  6.3271268455073426e-01  6.3271251652876481e-01  6.3271242147393536e-01  6.3271237456054019e-01  6.3271235578857044e-01  6.3271235049675489e-01  6.3271234917005326e-01  6.3281325659368481e-01  6.3281342587402256e-01  6.3281393458477853e-01  6.3281476715793183e-01  6.3281590100966167e-01  6.3281730517278578e-01  6.3281894093093261e-01  6.3282076261140774e-01  6.3282271852056893e-01  6.3282475200262478e-01  6.3282680260029223e-01  6.3282880729369362e-01  6.3283070179231427e-01  6.3283242185377397e-01  6.3283390460263123e-01  6.3283508982243086e-01  6.3283592119473275e-01  6.3283634745991102e-01  6.3283632347607299e-01  6.3283581115448817e-01  6.3283478025240569e-01  6.3283320900703388e-01  6.3283108459770210e-01  6.3282840342676339e-01  6.3282517121356929e-01  6.3282140289976430e-01  6.3281712236815069e-01  6.3281236198136304e-01  6.3280716195049080e-01  6.3280156954750433e-01  6.3279563817878426e-01  6.3278942634015112e-01  6.3278299647644187e-01  6.3277641377082872e-01  6.3276974489064319e-01  6.3276305671742372e-01  6.3275641508918745e-01  6.3274988358256090e-01  6.3274352236134812e-01  6.3273738711643313e-01  6.3273152811962408e-01  6.3272598941121894e-01  6.3272080813778131e-01  6.3271601405295419e-01  6.3271162919019552e-01  6.3270766771220832e-01  6.3270413593766761e-01  6.3270103254171117e-01  6.3269834892268584e-01  6.3269606972390857e-01  6.3269417349580748e-01  6.3269263348083182e-01  6.3269141850102417e-01  6.3269049392618093e-01  6.3268982269911778e-01  6.3268936639372775e-01  6.3268908628125675e-01  6.3268894438051337e-01  6.3268890446854364e-01  6.3268893302958162e-01  6.3268900012180029e-01  6.3268908014344716e-01  6.3268915248232849e-01  6.3268920203521273e-01  6.3268921897250585e-01  6.3276459283044761e-01  6.3276477246445884e-01  6.3276531252598145e-01  6.3276619731888273e-01  6.3276740421323618e-01  6.3276890217909487e-01  6.3277065242228292e-01  6.3277260917911582e-01  6.3277472065371476e-01  6.3277693007866243e-01  6.3277917687726004e-01  6.3278139790359900e-01  6.3278352873510446e-01  6.3278550499116926e-01  6.3278726365097915e-01  6.3278874434366750e-01  6.3278989058449187e-01  6.3279065093182552e-01  6.3279098004135792e-01  6.3279083959597582e-01  6.3279019909233336e-01  6.3278903646803975e-01  6.3278733855667213e-01  6.3278510136137878e-01  6.3278233014161778e-01  6.3277903931149737e-01  6.3277525215217290e-01  6.3277100034473122e-01  6.3276632333385963e-01  6.3276126753628548e-01  6.3275588541138084e-01  6.3275023441438272e-01  6.3274437585529453e-01  6.3273837368865216e-01  6.3273229326087199e-01  6.3272620004283797e-01  6.3272015837565021e-01  6.3271423025708606e-01  6.3270847419526965e-01  6.3270294415437178e-01  6.3269768861488385e-01  6.3269274976819345e-01  6.3268816286191987e-01  6.3268395570881297e-01  6.3268014836809405e-01  6.3267675300401438e-01  6.3267377392223545e-01  6.3267120778050778e-01  6.3266904396614210e-01  6.3266726512902016e