<?xml version="1.0"?>
<VTKFile type="UnstructuredGrid"  version="0.1"  >
<UnstructuredGrid>
<Piece  NumberOfPoints="4225" NumberOfCells="8192">
<Points>
<DataArray  type="Float64"  NumberOfComponents="3"  format="ascii">0 0 0  0.015625 0 0  0.03125 0 0  0.046875 0 0  0.0625 0 0  0.078125 0 0  0.09375 0 0  0.109375 0 0  0.125 0 0  0.140625 0 0  0.15625 0 0  0.171875 0 0  0.1875 0 0  0.203125 0 0  0.21875 0 0  0.234375 0 0  0.25 0 0  0.265625 0 0  0.28125 0 0  0.296875 0 0  0.3125 0 0  0.328125 0 0  0.34375 0 0  0.359375 0 0  0.375 0 0  0.390625 0 0  0.40625 0 0  0.421875 0 0  0.4375 0 0  0.453125 0 0  0.46875 0 0  0.484375 0 0  0.5 0 0  0.515625 0 0  0.53125 0 0  0.546875 0 0  0.5625 0 0  0.578125 0 0  0.59375 0 0  0.609375 0 0  0.625 0 0  0.640625 0 0  0.65625 0 0  0.671875 0 0  0.6875 0 0  0.703125 0 0  0.71875 0 0  0.734375 0 0  0.75 0 0  0.765625 0 0  0.78125 0 0  0.796875 0 0  0.8125 0 0  0.828125 0 0  0.84375 0 0  0.859375 0 0  0.875 0 0  0.890625 0 0  0.90625 0 0  0.921875 0 0  0.9375 0 0  0.953125 0 0  0.96875 0 0  0.984375 0 0  1 0 0  0 0.015625 0  0.015625 0.015625 0  0.03125 0.015625 0  0.046875 0.015625 0  0.0625 0.015625 0  0.078125 0.015625 0  0.09375 0.015625 0  0.109375 0.015625 0  0.125 0.015625 0  0.140625 0.015625 0  0.15625 0.015625 0  0.171875 0.015625 0  0.1875 0.015625 0  0.203125 0.015625 0  0.21875 0.015625 0  0.234375 0.015625 0  0.25 0.015625 0  0.265625 0.015625 0  0.28125 0.015625 0  0.296875 0.015625 0  0.3125 0.015625 0  0.328125 0.015625 0  0.34375 0.015625 0  0.359375 0.015625 0  0.375 0.015625 0  0.390625 0.015625 0  0.40625 0.015625 0  0.421875 0.015625 0  0.4375 0.015625 0  0.453125 0.015625 0  0.46875 0.015625 0  0.484375 0.015625 0  0.5 0.015625 0  0.515625 0.015625 0  0.53125 0.015625 0  0.546875 0.015625 0  0.5625 0.015625 0  0.578125 0.015625 0  0.59375 0.015625 0  0.609375 0.015625 0  0.625 0.015625 0  0.640625 0.015625 0  0.65625 0.015625 0  0.671875 0.015625 0  0.6875 0.015625 0  0.703125 0.015625 0  0.71875 0.015625 0  0.734375 0.015625 0  0.75 0.015625 0  0.765625 0.015625 0  0.78125 0.015625 0  0.796875 0.015625 0  0.8125 0.015625 0  0.828125 0.015625 0  0.84375 0.015625 0  0.859375 0.015625 0  0.875 0.015625 0  0.890625 0.015625 0  0.90625 0.015625 0  0.921875 0.015625 0  0.9375 0.015625 0  0.953125 0.015625 0  0.96875 0.015625 0  0.984375 0.015625 0  1 0.015625 0  0 0.03125 0  0.015625 0.03125 0  0.03125 0.03125 0  0.046875 0.03125 0  0.0625 0.03125 0  0.078125 0.03125 0  0.09375 0.03125 0  0.109375 0.03125 0  0.125 0.03125 0  0.140625 0.03125 0  0.15625 0.03125 0  0.171875 0.03125 0  0.1875 0.03125 0  0.203125 0.03125 0  0.21875 0.03125 0  0.234375 0.03125 0  0.25 0.03125 0  0.265625 0.03125 0  0.28125 0.03125 0  0.296875 0.03125 0  0.3125 0.03125 0  0.328125 0.03125 0  0.34375 0.03125 0  0.359375 0.03125 0  0.375 0.03125 0  0.390625 0.03125 0  0.40625 0.03125 0  0.421875 0.03125 0  0.4375 0.03125 0  0.453125 0.03125 0  0.46875 0.03125 0  0.484375 0.03125 0  0.5 0.03125 0  0.515625 0.03125 0  0.53125 0.03125 0  0.546875 0.03125 0  0.5625 0.03125 0  0.578125 0.03125 0  0.59375 0.03125 0  0.609375 0.03125 0  0.625 0.03125 0  0.640625 0.03125 0  0.65625 0.03125 0  0.671875 0.03125 0  0.6875 0.03125 0  0.703125 0.03125 0  0.71875 0.03125 0  0.734375 0.03125 0  0.75 0.03125 0  0.765625 0.03125 0  0.78125 0.03125 0  0.796875 0.03125 0  0.8125 0.03125 0  0.828125 0.03125 0  0.84375 0.03125 0  0.859375 0.03125 0  0.875 0.03125 0  0.890625 0.03125 0  0.90625 0.03125 0  0.921875 0.03125 0  0.9375 0.03125 0  0.953125 0.03125 0  0.96875 0.03125 0  0.984375 0.03125 0  1 0.03125 0  0 0.046875 0  0.015625 0.046875 0  0.03125 0.046875 0  0.046875 0.046875 0  0.0625 0.046875 0  0.078125 0.046875 0  0.09375 0.046875 0  0.109375 0.046875 0  0.125 0.046875 0  0.140625 0.046875 0  0.15625 0.046875 0  0.171875 0.046875 0  0.1875 0.046875 0  0.203125 0.046875 0  0.21875 0.046875 0  0.234375 0.046875 0  0.25 0.046875 0  0.265625 0.046875 0  0.28125 0.046875 0  0.296875 0.046875 0  0.3125 0.046875 0  0.328125 0.046875 0  0.34375 0.046875 0  0.359375 0.046875 0  0.375 0.046875 0  0.390625 0.046875 0  0.40625 0.046875 0  0.421875 0.046875 0  0.4375 0.046875 0  0.453125 0.046875 0  0.46875 0.046875 0  0.484375 0.046875 0  0.5 0.046875 0  0.515625 0.046875 0  0.53125 0.046875 0  0.546875 0.046875 0  0.5625 0.046875 0  0.578125 0.046875 0  0.59375 0.046875 0  0.609375 0.046875 0  0.625 0.046875 0  0.640625 0.046875 0  0.65625 0.046875 0  0.671875 0.046875 0  0.6875 0.046875 0  0.703125 0.046875 0  0.71875 0.046875 0  0.734375 0.046875 0  0.75 0.046875 0  0.765625 0.046875 0  0.78125 0.046875 0  0.796875 0.046875 0  0.8125 0.046875 0  0.828125 0.046875 0  0.84375 0.046875 0  0.859375 0.046875 0  0.875 0.046875 0  0.890625 0.046875 0  0.90625 0.046875 0  0.921875 0.046875 0  0.9375 0.046875 0  0.953125 0.046875 0  0.96875 0.046875 0  0.984375 0.046875 0  1 0.046875 0  0 0.0625 0  0.015625 0.0625 0  0.03125 0.0625 0  0.046875 0.0625 0  0.0625 0.0625 0  0.078125 0.0625 0  0.09375 0.0625 0  0.109375 0.0625 0  0.125 0.0625 0  0.140625 0.0625 0  0.15625 0.0625 0  0.171875 0.0625 0  0.1875 0.0625 0  0.203125 0.0625 0  0.21875 0.0625 0  0.234375 0.0625 0  0.25 0.0625 0  0.265625 0.0625 0  0.28125 0.0625 0  0.296875 0.0625 0  0.3125 0.0625 0  0.328125 0.0625 0  0.34375 0.0625 0  0.359375 0.0625 0  0.375 0.0625 0  0.390625 0.0625 0  0.40625 0.0625 0  0.421875 0.0625 0  0.4375 0.0625 0  0.453125 0.0625 0  0.46875 0.0625 0  0.484375 0.0625 0  0.5 0.0625 0  0.515625 0.0625 0  0.53125 0.0625 0  0.546875 0.0625 0  0.5625 0.0625 0  0.578125 0.0625 0  0.59375 0.0625 0  0.609375 0.0625 0  0.625 0.0625 0  0.640625 0.0625 0  0.65625 0.0625 0  0.671875 0.0625 0  0.6875 0.0625 0  0.703125 0.0625 0  0.71875 0.0625 0  0.734375 0.0625 0  0.75 0.0625 0  0.765625 0.0625 0  0.78125 0.0625 0  0.796875 0.0625 0  0.8125 0.0625 0  0.828125 0.0625 0  0.84375 0.0625 0  0.859375 0.0625 0  0.875 0.0625 0  0.890625 0.0625 0  0.90625 0.0625 0  0.921875 0.0625 0  0.9375 0.0625 0  0.953125 0.0625 0  0.96875 0.0625 0  0.984375 0.0625 0  1 0.0625 0  0 0.078125 0  0.015625 0.078125 0  0.03125 0.078125 0  0.046875 0.078125 0  0.0625 0.078125 0  0.078125 0.078125 0  0.09375 0.078125 0  0.109375 0.078125 0  0.125 0.078125 0  0.140625 0.078125 0  0.15625 0.078125 0  0.171875 0.078125 0  0.1875 0.078125 0  0.203125 0.078125 0  0.21875 0.078125 0  0.234375 0.078125 0  0.25 0.078125 0  0.265625 0.078125 0  0.28125 0.078125 0  0.296875 0.078125 0  0.3125 0.078125 0  0.328125 0.078125 0  0.34375 0.078125 0  0.359375 0.078125 0  0.375 0.078125 0  0.390625 0.078125 0  0.40625 0.078125 0  0.421875 0.078125 0  0.4375 0.078125 0  0.453125 0.078125 0  0.46875 0.078125 0  0.484375 0.078125 0  0.5 0.078125 0  0.515625 0.078125 0  0.53125 0.078125 0  0.546875 0.078125 0  0.5625 0.078125 0  0.578125 0.078125 0  0.59375 0.078125 0  0.609375 0.078125 0  0.625 0.078125 0  0.640625 0.078125 0  0.65625 0.078125 0  0.671875 0.078125 0  0.6875 0.078125 0  0.703125 0.078125 0  0.71875 0.078125 0  0.734375 0.078125 0  0.75 0.078125 0  0.765625 0.078125 0  0.78125 0.078125 0  0.796875 0.078125 0  0.8125 0.078125 0  0.828125 0.078125 0  0.84375 0.078125 0  0.859375 0.078125 0  0.875 0.078125 0  0.890625 0.078125 0  0.90625 0.078125 0  0.921875 0.078125 0  0.9375 0.078125 0  0.953125 0.078125 0  0.96875 0.078125 0  0.984375 0.078125 0  1 0.078125 0  0 0.09375 0  0.015625 0.09375 0  0.03125 0.09375 0  0.046875 0.09375 0  0.0625 0.09375 0  0.078125 0.09375 0  0.09375 0.09375 0  0.109375 0.09375 0  0.125 0.09375 0  0.140625 0.09375 0  0.15625 0.09375 0  0.171875 0.09375 0  0.1875 0.09375 0  0.203125 0.09375 0  0.21875 0.09375 0  0.234375 0.09375 0  0.25 0.09375 0  0.265625 0.09375 0  0.28125 0.09375 0  0.296875 0.09375 0  0.3125 0.09375 0  0.328125 0.09375 0  0.34375 0.09375 0  0.359375 0.09375 0  0.375 0.09375 0  0.390625 0.09375 0  0.40625 0.09375 0  0.421875 0.09375 0  0.4375 0.09375 0  0.453125 0.09375 0  0.46875 0.09375 0  0.484375 0.09375 0  0.5 0.09375 0  0.515625 0.09375 0  0.53125 0.09375 0  0.546875 0.09375 0  0.5625 0.09375 0  0.578125 0.09375 0  0.59375 0.09375 0  0.609375 0.09375 0  0.625 0.09375 0  0.640625 0.09375 0  0.65625 0.09375 0  0.671875 0.09375 0  0.6875 0.09375 0  0.703125 0.09375 0  0.71875 0.09375 0  0.734375 0.09375 0  0.75 0.09375 0  0.765625 0.09375 0  0.78125 0.09375 0  0.796875 0.09375 0  0.8125 0.09375 0  0.828125 0.09375 0  0.84375 0.09375 0  0.859375 0.09375 0  0.875 0.09375 0  0.890625 0.09375 0  0.90625 0.09375 0  0.921875 0.09375 0  0.9375 0.09375 0  0.953125 0.09375 0  0.96875 0.09375 0  0.984375 0.09375 0  1 0.09375 0  0 0.109375 0  0.015625 0.109375 0  0.03125 0.109375 0  0.046875 0.109375 0  0.0625 0.109375 0  0.078125 0.109375 0  0.09375 0.109375 0  0.109375 0.109375 0  0.125 0.109375 0  0.140625 0.109375 0  0.15625 0.109375 0  0.171875 0.109375 0  0.1875 0.109375 0  0.203125 0.109375 0  0.21875 0.109375 0  0.234375 0.109375 0  0.25 0.109375 0  0.265625 0.109375 0  0.28125 0.109375 0  0.296875 0.109375 0  0.3125 0.109375 0  0.328125 0.109375 0  0.34375 0.109375 0  0.359375 0.109375 0  0.375 0.109375 0  0.390625 0.109375 0  0.40625 0.109375 0  0.421875 0.109375 0  0.4375 0.109375 0  0.453125 0.109375 0  0.46875 0.109375 0  0.484375 0.109375 0  0.5 0.109375 0  0.515625 0.109375 0  0.53125 0.109375 0  0.546875 0.109375 0  0.5625 0.109375 0  0.578125 0.109375 0  0.59375 0.109375 0  0.609375 0.109375 0  0.625 0.109375 0  0.640625 0.109375 0  0.65625 0.109375 0  0.671875 0.109375 0  0.6875 0.109375 0  0.703125 0.109375 0  0.71875 0.109375 0  0.734375 0.109375 0  0.75 0.109375 0  0.765625 0.109375 0  0.78125 0.109375 0  0.796875 0.109375 0  0.8125 0.109375 0  0.828125 0.109375 0  0.84375 0.109375 0  0.859375 0.109375 0  0.875 0.109375 0  0.890625 0.109375 0  0.90625 0.109375 0  0.921875 0.109375 0  0.9375 0.109375 0  0.953125 0.109375 0  0.96875 0.109375 0  0.984375 0.109375 0  1 0.109375 0  0 0.125 0  0.015625 0.125 0  0.03125 0.125 0  0.046875 0.125 0  0.0625 0.125 0  0.078125 0.125 0  0.09375 0.125 0  0.109375 0.125 0  0.125 0.12
[...]
<PointData  Scalars="f_12"> 
<DataArray  type="Float64"  Name="f_12"  format="ascii">6.3202964195602629e-01  6.3202964580221110e-01  6.3202965733244343e-01  6.3202967651876341e-01  6.3202970331493624e-01  6.3202973765640258e-01  6.3202977946042904e-01  6.3202982862630586e-01  6.3202988503558877e-01  6.3202994855238459e-01  6.3203001902367917e-01  6.3203009627970486e-01  6.3203018013435119e-01  6.3203027038561255e-01  6.3203036681607494e-01  6.3203046919344019e-01  6.3203057727108580e-01  6.3203069078865881e-01  6.3203080947270307e-01  6.3203093303731861e-01  6.3203106118484942e-01  6.3203119360660143e-01  6.3203132998358458e-01  6.3203146998728299e-01  6.3203161328044433e-01  6.3203175951789314e-01  6.3203190834736156e-01  6.3203205941033735e-01  6.3203221234292761e-01  6.3203236677673458e-01  6.3203252233974305e-01  6.3203267865721524e-01  6.3203283535259458e-01  6.3203299204841046e-01  6.3203314836718871e-01  6.3203330393235968e-01  6.3203345836916536e-01  6.3203361130556168e-01  6.3203376237311459e-01  6.3203391120788754e-01  6.3203405745131780e-01  6.3203420075108019e-01  6.3203434076193599e-01  6.3203447714656513e-01  6.3203460957637825e-01  6.3203473773230900e-01  6.3203486130558262e-01  6.3203497999846125e-01  6.3203509352496023e-01  6.3203520161153848e-01  6.3203530399775842e-01  6.3203540043691298e-01  6.3203549069662135e-01  6.3203557455938963e-01  6.3203565182313504e-01  6.3203572230167382e-01  6.3203578582517006e-01  6.3203584224054621e-01  6.3203589141185135e-01  6.3203593322059037e-01  6.3203596756600910e-01  6.3203599436533653e-01  6.3203601355398298e-01  6.3203602508568835e-01  6.3203602893242217e-01  6.3202962402733087e-01  6.3202962787386929e-01  6.3202963940591772e-01  6.3202965859516913e-01  6.3202968539538984e-01  6.3202971974201339e-01  6.3202976155229440e-01  6.3202981072550857e-01  6.3202986714319431e-01  6.3202993066943847e-01  6.3203000115120422e-01  6.3203007841869940e-01  6.3203016228578590e-01  6.3203025255042844e-01  6.3203034899518107e-01  6.3203045138771163e-01  6.3203055948136133e-01  6.3203067301573901e-01  6.3203079171734855e-01  6.3203091530024780e-01  6.3203104346673700e-01  6.3203117590807656e-01  6.3203131230523002e-01  6.3203145232963287e-01  6.3203159564398304e-01  6.3203174190305467e-01  6.3203189075452759e-01  6.3203204183983708e-01  6.3203219479503636e-01  6.3203234925167351e-01  6.3203250483767826e-01  6.3203266117825785e-01  6.3203281789679955e-01  6.3203297461577745e-01  6.3203313095766134e-01  6.3203328654582580e-01  6.3203344100545755e-01  6.3203359396445735e-01  6.3203374505433640e-01  6.3203389391110443e-01  6.3203404017614528e-01  6.3203418349708151e-01  6.3203432352862332e-01  6.3203445993340057e-01  6.3203459238277493e-01  6.3203472055763243e-01  6.3203484414915301e-01  6.3203496285955396e-01  6.3203507640280820e-01  6.3203518450533436e-01  6.3203528690665556e-01  6.3203538336002829e-01  6.3203547363303736e-01  6.3203555750815610e-01  6.3203563478327207e-01  6.3203570527217379e-01  6.3203576880499990e-01  6.3203582522865021e-01  6.3203587440715414e-01  6.3203591622199884e-01  6.3203595057241546e-01  6.3203597737562189e-01  6.3203599656702181e-01  6.3203600810035931e-01  6.3203601194738235e-01  6.3202957028436835e-01  6.3202957413206529e-01  6.3202958566922696e-01  6.3202960486695681e-01  6.3202963167900972e-01  6.3202966604079402e-01  6.3202970786952983e-01  6.3202975706444886e-01  6.3202981350703813e-01  6.3202987706132574e-01  6.3202994757420783e-01  6.3203002487581805e-01  6.3203010877993704e-01  6.3203019908444114e-01  6.3203029557178958e-01  6.3203039800954830e-01  6.3203050615095091e-01  6.3203061973549168e-01  6.3203073848955493e-01  6.3203086212707293e-01  6.3203099035021570e-01  6.3203112285010776e-01  6.3203125930757253e-01  6.3203139939390107e-01  6.3203154277164297e-01  6.3203168909542029e-01  6.3203183801275764e-01  6.3203198916493231e-01  6.3203214218783699e-01  6.3203229671285677e-01  6.3203245236775729e-01  6.3203260877757983e-01  6.3203276556554500e-01  6.3203292235395980e-01  6.3203307876512649e-01  6.3203323442225290e-01  6.3203338895035899e-01  6.3203354197718065e-01  6.3203369313406499e-01  6.3203384205685953e-01  6.3203398838678881e-01  6.3203413177131862e-01  6.3203427186500494e-01  6.3203440833032709e-01  6.3203454083850008e-01  6.3203466907026751e-01  6.3203479271667118e-01  6.3203491147979507e-01  6.3203502507348452e-01  6.3203513322403526e-01  6.3203523567085418e-01  6.3203533216708696e-01  6.3203542248021416e-01  6.3203550639261175e-01  6.3203558370207658e-01  6.3203565422231311e-01  6.3203571778338474e-01  6.3203577423212187e-01  6.3203582343249309e-01  6.3203586526593303e-01  6.3203589963162787e-01  6.3203592644675988e-01  6.3203594564670762e-01  6.3203595718520600e-01  6.3203596103346349e-01  6.3202948085734556e-01  6.3202948470731934e-01  6.3202949625295923e-01  6.3202951546478792e-01  6.3202954229652608e-01  6.3202957668353610e-01  6.3202961854297879e-01  6.3202966777401348e-01  6.3202972425804127e-01  6.3202978785899155e-01  6.3202985842364945e-01  6.3202993578202527e-01  6.3203001974776452e-01  6.3203011011859656e-01  6.3203020667682219e-01  6.3203030918983849e-01  6.3203041741069910e-01  6.3203053107870888e-01  6.3203064992005253e-01  6.3203077364845361e-01  6.3203090196586487e-01  6.3203103456318521e-01  6.3203117112100515e-01  6.3203131131037471e-01  6.3203145479359735e-01  6.3203160122504165e-01  6.3203175025197433e-01  6.3203190151540922e-01  6.3203205465097201e-01  6.3203220928977721e-01  6.3203236505931670e-01  6.3203252158435597e-01  6.3203267848783840e-01  6.3203283539179245e-01  6.3203299191824247e-01  6.3203314769011787e-01  6.3203330233216204e-01  6.3203345547183543e-01  6.3203360674021292e-01  6.3203375577287269e-01  6.3203390221077338e-01  6.3203404570111943e-01  6.3203418589821103e-01  6.3203432246427660e-01  6.3203445507028755e-01  6.3203458339675012e-01  6.3203470713447629e-01  6.3203482598532890e-01  6.3203493966293978e-01  6.3203504789340115e-01  6.3203515041592584e-01  6.3203524698347546e-01  6.3203533736335704e-01  6.3203542133778468e-01  6.3203549870440379e-01  6.3203556927678062e-01  6.3203563288485065e-01  6.3203568937533094e-01  6.3203573861208817e-01  6.3203578047646858e-01  6.3203581486758398e-01  6.3203584170255556e-01  6.3203586091671482e-01  6.3203587246376125e-01  6.3203587631437619e-01  6.3202935596320542e-01  6.3202935981657704e-01  6.3202937137404824e-01  6.3202939060556096e-01  6.3202941746478802e-01  6.3202945188702619e-01  6.3202949378935269e-01  6.3202954307082504e-01  6.3202959961272454e-01  6.3202966327884258e-01  6.3202973391580919e-01  6.3202981135346270e-01  6.3202989540525911e-01  6.3202998586872294e-01  6.3203008252593396e-01  6.3203018514405307e-01  6.3203029347588280e-01  6.3203040726046322e-01  6.3203052622370026e-01  6.3203065007902648e-01  6.3203077852809075e-01  6.3203091126147715e-01  6.3203104795945020e-01  6.3203118829272464e-01  6.3203133192325889e-01  6.3203147850506824e-01  6.3203162768505872e-01  6.3203177910387709e-01  6.3203193239677535e-01  6.3203208719449044e-01  6.3203224312413164e-01  6.3203239981007975e-01  6.3203255687489057e-01  6.3203271394020422e-01  6.3203287062765590e-01  6.3203302655978688e-01  6.3203318136095399e-01  6.3203333465823353e-01  6.3203348608231968e-01  6.3203363526841427e-01  6.3203378185710490e-01  6.3203392549523152e-01  6.3203406583673605e-01  6.3203420254349774e-01  6.3203433528614661e-01  6.3203446374485805e-01  6.3203458761012321e-01  6.3203470658349514e-01  6.3203482037830871e-01  6.3203492872037148e-01  6.3203503134862471e-01  6.3203512801577355e-01  6.3203521848888289e-01  6.3203530254993978e-01  6.3203537999637949e-01  6.3203545064157340e-01  6.3203551431528049e-01  6.3203557086405759e-01  6.3203562015163006e-01  6.3203566205922035e-01  6.3203569648583546e-01  6.3203572334851033e-01  6.3203574258250905e-01  6.3203575414148105e-01  6.3203575799558209e-01  6.3202919590492956e-01  6.3202919976281424e-01  6.3202921133544365e-01  6.3202923059217841e-01  6.3202925748663064e-01  6.3202929195401303e-01  6.3202933391129512e-01  6.3202938325740377e-01  6.3202943987346649e-01  6.3202950362309807e-01  6.3202957435272955e-01  6.3202965189197835e-01  6.3202973605405866e-01  6.3202982663623153e-01  6.3202992342029407e-01  6.3203002617310411e-01  6.3203013464714275e-01  6.3203024858111023e-01  6.3203036770055598e-01  6.3203049171853876e-01  6.3203062033631863e-01  6.3203075324407587e-01  6.3203089012165770e-01  6.3203103063934885e-01  6.3203117445866541e-01  6.3203132123317018e-01  6.3203147060930698e-01  6.3203162222725173e-01  6.3203177572177838e-01  6.3203193072313901e-01  6.3203208685795353e-01  6.3203224375010914e-01  6.3203240102166525e-01  6.3203255829376392e-01  6.3203271518754200e-01  6.3203287132504338e-01  6.3203302633012937e-01  6.3203317982938401e-01  6.3203333145301355e-01  6.3203348083573763e-01  6.3203362761766835e-01  6.3203377144517803e-01  6.3203391197175063e-01  6.3203404885881675e-01  6.3203418177656967e-01  6.3203431040476021e-01  6.3203443443346874e-01  6.3203455356385152e-01  6.3203466750886239e-01  6.3203477599394409e-01  6.3203487875769060e-01  6.3203497555247756e-01  6.3203506614505978e-01  6.3203515031713386e-01  6.3203522786586463e-01  6.3203529860437513e-01  6.3203536236219682e-01  6.3203541898568216e-01  6.3203546833837454e-01  6.3203551030133798e-01  6.3203554477344470e-01  6.3203557167161883e-01  6.3203559093103778e-01  6.3203560250528767e-01  6.3203560636399780e-01  6.3202900107078275e-01  6.3202900493428515e-01  6.3202901652536381e-01  6.3202903581279779e-01  6.3202906275012560e-01  6.3202909727245771e-01  6.3202913929663262e-01  6.3202918872141800e-01  6.3202924542775407e-01  6.3202930927904055e-01  6.3202938012146637e-01  6.3202945778438002e-01  6.3202954208070095e-01  6.3202963280737012e-01  6.3202972974583982e-01  6.3202983266259971e-01  6.3202994130973922e-01  6.3203005542554536e-01  6.3203017473513290e-01  6.3203029895110607e-01  6.3203042777425167e-01  6.3203056089425835e-01  6.3203069799046563e-01  6.3203083873263388e-01  6.3203098278174208e-01  6.3203112979080156e-01  6.3203127940569370e-01  6.3203143126602113e-01  6.3203158500597578e-01  6.3203174025522013e-01  6.3203189663977799e-01  6.3203205378293559e-01  6.3203221130614817e-01  6.3203236882995195e-01  6.3203252597487691e-01  6.3203268236236154e-01  6.3203283761566376e-01  6.3203299136076863e-01  6.3203314322728854e-01  6.3203329284935605e-01  6.3203343986650451e-01  6.3203358392453735e-01  6.3203372467638042e-01  6.3203386178291854e-01  6.3203399491381362e-01  6.3203412374829959e-01  6.3203424797595620e-01  6.3203436729745754e-01  6.3203448142529328e-01  6.3203459008446206e-01  6.3203469301313497e-01  6.3203478996328710e-01  6.3203488070129532e-01  6.3203496500850265e-01  6.3203504268174537e-01  6.3203511353384334e-01  6.3203517739405191e-01  6.3203523410847395e-01  6.3203528354043159e-01  6.3203532557079622e-01  6.3203536009827532e-01  6.3203538703965834e-01  6.3203540633001698e-01  6.3203541792286155e-01  6.3203542178729311e-01  6.3202877193334950e-01  6.3202877580356065e-01  6.3202878741633517e-01  6.3202880673987083e-01  6.3202883372762009e-01  6.3202886831457317e-01  6.3202891041741482e-01  6.3202895993472508e-01  6.3202901674722389e-01  6.3202908071805808e-01  6.3202915169313179e-01  6.3202922950147744e-01  6.3202931395566753e-01  6.3202940485226700e-01  6.3202950197232244e-01  6.3202960508188999e-01  6.3202971393259921e-01  6.3202982826225096e-01  6.3202994779544852e-01  6.3203007224426222e-01  6.3203020130892151e-01  6.3203033467853753e-01  6.3203047203185192e-01  6.3203061303800978e-01  6.3203075735735681e-01  6.3203090464225709e-01  6.3203105453792985e-01  6.3203120668330381e-01  6.3203136071188659e-01  6.3203151625264664e-01  6.3203167293090723e-01  6.3203183036924793e-01  6.3203198818841344e-01  6.3203214600822699e-01  6.3203230344850547e-01  6.3203246012997505e-01  6.3203261567518443e-01  6.3203276970941380e-01  6.3203292186157733e-01  6.3203307176511725e-01  6.3203321905888654e-01  6.3203336338801885e-01  6.3203350440478412e-01  6.3203364176942578e-01  6.3203377515098003e-01  6.3203390422807326e-01  6.3203402868969694e-01  6.3203414823595727e-01  6.3203426257879847e-01  6.3203437144269703e-01  6.3203447456532669e-01  6.3203457169819111e-01  6.3203466260722319e-01  6.3203474707334983e-01  6.3203482489302076e-01  6.3203489587869954e-01  6.3203495985931668e-01  6.3203501668068174e-01  6.3203506620585648e-01  6.3203510831548515e-01  6.3203514290808238e-01  6.3203516990027864e-01  6.3203518922702151e-01  6.3203520084173270e-01  6.3203520471298436e-01  6.3202850904836450e-01  6.3202851292635942e-01  6.3202852456402325e-01  6.3202854392897523e-01  6.3202857097456877e-01  6.3202860563565633e-01  6.3202864782874613e-01  6.3202869745220325e-01  6.3202875438649464e-01  6.3202881849447712e-01  6.3202888962172821e-01  6.3202896759691729e-01  6.3202905223221961e-01  6.3202914332376781e-01  6.3202924065214350e-01  6.3202934398290578e-01  6.3202945306715608e-01  6.3202956764213725e-01  6.3202968743186694e-01  6.3202981214780185e-01  6.3202994148953262e-01  6.3203007514550780e-01  6.3203021279378313e-01  6.3203035410279740e-01  6.3203049873217054e-01  6.3203064633352335e-01  6.3203079655131600e-01  6.3203094902370383e-01  6.3203110338340907e-01  6.3203125925860482e-01  6.3203141627380977e-01  6.3203157405079324e-01  6.3203173220948483e-01  6.3203189036888963e-01  6.3203204814800651e-01  6.3203220516674452e-01  6.3203236104683835e-01  6.3203251541276018e-01  6.3203266789262269e-01  6.3203281811907630e-01  6.3203296573019307e-01  6.3203311037033916e-01  6.3203325169103131e-01  6.3203338935177711e-01  6.3203352302089510e-01  6.3203365237631481e-01  6.3203377710635256e-01  6.3203389691046319e-01  6.3203401149996519e-01  6.3203412059873598e-01  6.3203422394387865e-01  6.3203432128635628e-01  6.3203441239159197e-01  6.3203449704003556e-01  6.3203457502769333e-01  6.3203464616662008e-01  6.3203471028537317e-01  6.3203476722942620e-01  6.3203481686154195e-01  6.3203485906210410e-01  6.3203489372940602e-01  6.3203492077989587e-01  6.3203494014837924e-01  6.3203495178817559e-01  6.3203495566732959e-01  6.3202821305333734e-01  6.3202821694017197e-01  6.3202822860585828e-01  6.3202824801744006e-01  6.3202827512815951e-01  6.3202830987271397e-01  6.3202835216741282e-01  6.3202840191037934e-01  6.3202845898179560e-01  6.3202852324419212e-01  6.3202859454277793e-01  6.3202867270581464e-01  6.3202875754502930e-01  6.3202884885606825e-01  6.3202894641898977e-01  6.3202904999879317e-01  6.3202915934598503e-01  6.3202927419718069e-01  6.3202939427573757e-01  6.3202951929242179e-01  6.3202964894610503e-01  6.3202978292448941e-01  6.3202992090485854e-01  6.3203006255485628e-01  6.3203020753328520e-01  6.3203035549092934e-01  6.3203050607139388e-01  6.3203065891196386e-01  6.3203081364447733e-01  6.3203096989621121e-01  6.3203112729077948e-01  6.3203128544903808e-01  6.3203144398999911e-01  6.3203160253174728e-01  6.3203176069235967e-01  6.3203191809082537e-01  6.3203207434796327e-01  6.3203222908733481e-01  6.3203238193615130e-01  6.3203253252617109e-01  6.3203268049458716e-01  6.3203282548490114e-01  6.3203296714778223e-01  6.3203310514190947e-01  6.3203323913479359e-01  6.3203336880357885e-01  6.3203349383582208e-01  6.3203361393024460e-01  6.3203372879746011e-01  6.3203383816067182e-01  6.3203394175634042e-01  6.3203403933481972e-01  6.3203413066095970e-01  6.3203421551467265e-01  6.3203429369146535e-01  6.3203436500293286e-01  6.3203442927721210e-01  6.3203448635939818e-01  6.3203453611191773e-01  6.3203457841486099e-01  6.3203461316627163e-01  6.3203464028239342e-01  6.3203465969787131e-01  6.3203467136591052e-01  6.3203467525403012e-01  6.3202788466597715e-01  6.3202788856268544e-01  6.3202790025945899e-01  6.3202791972277017e-01  6.3202794690573805e-01  6.3202798174288799e-01  6.3202802415030890e-01  6.3202807402585526e-01  6.3202813124939394e-01  6.3202819568309254e-01  6.3202826717175231e-01  6.3202834554318144e-01  6.3202843060861058e-01  6.3202852216314642e-01  6.3202861998626636e-01  6.3202872384234876e-01  6.3202883348124084e-01  6.3202894863886094e-01  6.3202906903783429e-01  6.3202919438816163e-01  6.3202932438791626e-01  6.3202945872397209e-01  6.3202959707275730e-01  6.3202973910103255e-01  6.3202988446669428e-01  6.3203003281959813e-01  6.3203018380240084e-01  6.3203033705142209e-01  6.3203049219751883e-01  6.3203064886697413e-01  6.3203080668239742e-01  6.3203096526363256e-01  6.3203112422867325e-01  6.3203128319458257e-01  6.3203144177841586e-01  6.3203159959814148e-01  6.3203175627356178e-01  6.3203191142722892e-01  6.3203206468535289e-01  6.3203221567870327e-01  6.3203236404349761e-01  6.3203250942227862e-01  6.3203265146477539e-01  6.3203278982874722e-01  6.3203292418080881e-01  6.3203305419723388e-01  6.3203317956473581e-01  6.3203329998122282e-01  6.3203341515652645e-01  6.3203352481310193e-01  6.3203362868669721e-01  6.3203372652699097e-01  6.3203381809819614e-01  6.3203390317962937e-01  6.3203398156624357e-01  6.3203405306912275e-01  6.3203411751593863e-01  6.3203417475136581e-01  6.3203422463745773e-01  6.3203426705397958e-01  6.3203430189869803e-01  6.3203432908762947e-01  6.3203434855524177e-01  6.3203436025461257e-01  6.3203436415273873e-01  6.3202752468241707e-01  6.3202752859000955e-01  6.3202754032085906e-01  6.3202755984087289e-01  6.3202758710303542e-01  6.3202762204168328e-01  6.3202766457266379e-01  6.3202771459353713e-01  6.3202777198382387e-01  6.3202783660529460e-01  6.3202790830230304e-01  6.3202798690216100e-01  6.3202807221555424e-01  6.3202816403699846e-01  6.3202826214533392e-01  6.3202836630425874e-01  6.3202847626289693e-01  6.3202859175640325e-01  6.3202871250660053e-01  6.3202883822264955e-01  6.3202896860174929e-01  6.3202910332986617e-01  6.3202924208248934e-01  6.3202938452541257e-01  6.3202953031553888e-01  6.3202967910170571e-01  6.3202983052553086e-01  6.3202998422227508e-01  6.3203013982172007e-01  6.3203029694905999e-01  6.3203045522580281e-01  6.3203061427068286e-01  6.3203077370057770e-01  6.3203093313143099e-01  6.3203109217917708e-01  6.3203125046066611e-01  6.3203140759458631e-01  6.3203156320238285e-01  6.3203171690916882e-01  6.3203186834462965e-01  6.3203201714391377e-01  6.3203216294851261e-01  6.3203230540712463e-01  6.3203244417650128e-01  6.3203257892227505e-01  6.3203270931976518e-01  6.3203283505476071e-01  6.3203295582427832e-01  6.3203307133729258e-01  6.3203318131543851e-01  6.3203328549368321e-01  6.3203338362096451e-01  6.3203347546079769e-01  6.3203356079184647e-01  6.3203363940845614e-01  6.3203371112115125e-01  6.3203377575709274e-01  6.3203383316049477e-01  6.3203388319300191e-01  6.3203392573402239e-01  6.3203396068102002e-01  6.3203398794976162e-01  6.3203400747452043e-01  6.3203401920823532e-01  6.3203402311738499e-01  6.3202713397524946e-01  6.3202713789470988e-01  6.3202714966254081e-01  6.3202716924409241e-01  6.3202719659220252e-01  6.3202723164100316e-01  6.3202727430607908e-01  6.3202732448467158e-01  6.3202738205592524e-01  6.3202744688117962e-01  6.3202751880430308e-01  6.3202759765206828e-01  6.3202768323457004e-01  6.3202777534568233e-01  6.3202787376355452e-01  6.3202797825114576e-01  6.3202808855679560e-01  6.3202820441483010e-01  6.3202832554620092e-01  6.3202845165915789e-01  6.3202858244995075e-01  6.3202871760356061e-01  6.3202885679445842e-01  6.3202899968738824e-01  6.3202914593817427e-01  6.3202929519454998e-01  6.3202944709700493e-01  6.3202960127965113e-01  6.3202975737110334e-01  6.3202991499537320e-01  6.3203007377277420e-01  6.3203023332083597e-01  6.3203039325522492e-01  6.3203055319066970e-01  6.3203071274188860e-01  6.3203087152451765e-01  6.3203102915603604e-01  6.3203118525668756e-01  6.3203133945039525e-01  6.3203149136566716e-01  6.3203164063649209e-01  6.3203178690322037e-01  6.3203192981343159e-01  6.3203206902278397e-01  6.3203220419584361e-01  6.3203233500689404e-01  6.3203246114072142e-01  6.3203258229337422e-01  6.3203269817289764e-01  6.3203280850003618e