<?xml version="1.0"?>
<VTKFile type="UnstructuredGrid"  version="0.1"  >
<UnstructuredGrid>
<Piece  NumberOfPoints="4225" NumberOfCells="8192">
<Points>
<DataArray  type="Float64"  NumberOfComponents="3"  format="ascii">0 0 0  0.015625 0 0  0.03125 0 0  0.046875 0 0  0.0625 0 0  0.078125 0 0  0.09375 0 0  0.109375 0 0  0.125 0 0  0.140625 0 0  0.15625 0 0  0.171875 0 0  0.1875 0 0  0.203125 0 0  0.21875 0 0  0.234375 0 0  0.25 0 0  0.265625 0 0  0.28125 0 0  0.296875 0 0  0.3125 0 0  0.328125 0 0  0.34375 0 0  0.359375 0 0  0.375 0 0  0.390625 0 0  0.40625 0 0  0.421875 0 0  0.4375 0 0  0.453125 0 0  0.46875 0 0  0.484375 0 0  0.5 0 0  0.515625 0 0  0.53125 0 0  0.546875 0 0  0.5625 0 0  0.578125 0 0  0.59375 0 0  0.609375 0 0  0.625 0 0  0.640625 0 0  0.65625 0 0  0.671875 0 0  0.6875 0 0  0.703125 0 0  0.71875 0 0  0.734375 0 0  0.75 0 0  0.765625 0 0  0.78125 0 0  0.796875 0 0  0.8125 0 0  0.828125 0 0  0.84375 0 0  0.859375 0 0  0.875 0 0  0.890625 0 0  0.90625 0 0  0.921875 0 0  0.9375 0 0  0.953125 0 0  0.96875 0 0  0.984375 0 0  1 0 0  0 0.015625 0  0.015625 0.015625 0  0.03125 0.015625 0  0.046875 0.015625 0  0.0625 0.015625 0  0.078125 0.015625 0  0.09375 0.015625 0  0.109375 0.015625 0  0.125 0.015625 0  0.140625 0.015625 0  0.15625 0.015625 0  0.171875 0.015625 0  0.1875 0.015625 0  0.203125 0.015625 0  0.21875 0.015625 0  0.234375 0.015625 0  0.25 0.015625 0  0.265625 0.015625 0  0.28125 0.015625 0  0.296875 0.015625 0  0.3125 0.015625 0  0.328125 0.015625 0  0.34375 0.015625 0  0.359375 0.015625 0  0.375 0.015625 0  0.390625 0.015625 0  0.40625 0.015625 0  0.421875 0.015625 0  0.4375 0.015625 0  0.453125 0.015625 0  0.46875 0.015625 0  0.484375 0.015625 0  0.5 0.015625 0  0.515625 0.015625 0  0.53125 0.015625 0  0.546875 0.015625 0  0.5625 0.015625 0  0.578125 0.015625 0  0.59375 0.015625 0  0.609375 0.015625 0  0.625 0.015625 0  0.640625 0.015625 0  0.65625 0.015625 0  0.671875 0.015625 0  0.6875 0.015625 0  0.703125 0.015625 0  0.71875 0.015625 0  0.734375 0.015625 0  0.75 0.015625 0  0.765625 0.015625 0  0.78125 0.015625 0  0.796875 0.015625 0  0.8125 0.015625 0  0.828125 0.015625 0  0.84375 0.015625 0  0.859375 0.015625 0  0.875 0.015625 0  0.890625 0.015625 0  0.90625 0.015625 0  0.921875 0.015625 0  0.9375 0.015625 0  0.953125 0.015625 0  0.96875 0.015625 0  0.984375 0.015625 0  1 0.015625 0  0 0.03125 0  0.015625 0.03125 0  0.03125 0.03125 0  0.046875 0.03125 0  0.0625 0.03125 0  0.078125 0.03125 0  0.09375 0.03125 0  0.109375 0.03125 0  0.125 0.03125 0  0.140625 0.03125 0  0.15625 0.03125 0  0.171875 0.03125 0  0.1875 0.03125 0  0.203125 0.03125 0  0.21875 0.03125 0  0.234375 0.03125 0  0.25 0.03125 0  0.265625 0.03125 0  0.28125 0.03125 0  0.296875 0.03125 0  0.3125 0.03125 0  0.328125 0.03125 0  0.34375 0.03125 0  0.359375 0.03125 0  0.375 0.03125 0  0.390625 0.03125 0  0.40625 0.03125 0  0.421875 0.03125 0  0.4375 0.03125 0  0.453125 0.03125 0  0.46875 0.03125 0  0.484375 0.03125 0  0.5 0.03125 0  0.515625 0.03125 0  0.53125 0.03125 0  0.546875 0.03125 0  0.5625 0.03125 0  0.578125 0.03125 0  0.59375 0.03125 0  0.609375 0.03125 0  0.625 0.03125 0  0.640625 0.03125 0  0.65625 0.03125 0  0.671875 0.03125 0  0.6875 0.03125 0  0.703125 0.03125 0  0.71875 0.03125 0  0.734375 0.03125 0  0.75 0.03125 0  0.765625 0.03125 0  0.78125 0.03125 0  0.796875 0.03125 0  0.8125 0.03125 0  0.828125 0.03125 0  0.84375 0.03125 0  0.859375 0.03125 0  0.875 0.03125 0  0.890625 0.03125 0  0.90625 0.03125 0  0.921875 0.03125 0  0.9375 0.03125 0  0.953125 0.03125 0  0.96875 0.03125 0  0.984375 0.03125 0  1 0.03125 0  0 0.046875 0  0.015625 0.046875 0  0.03125 0.046875 0  0.046875 0.046875 0  0.0625 0.046875 0  0.078125 0.046875 0  0.09375 0.046875 0  0.109375 0.046875 0  0.125 0.046875 0  0.140625 0.046875 0  0.15625 0.046875 0  0.171875 0.046875 0  0.1875 0.046875 0  0.203125 0.046875 0  0.21875 0.046875 0  0.234375 0.046875 0  0.25 0.046875 0  0.265625 0.046875 0  0.28125 0.046875 0  0.296875 0.046875 0  0.3125 0.046875 0  0.328125 0.046875 0  0.34375 0.046875 0  0.359375 0.046875 0  0.375 0.046875 0  0.390625 0.046875 0  0.40625 0.046875 0  0.421875 0.046875 0  0.4375 0.046875 0  0.453125 0.046875 0  0.46875 0.046875 0  0.484375 0.046875 0  0.5 0.046875 0  0.515625 0.046875 0  0.53125 0.046875 0  0.546875 0.046875 0  0.5625 0.046875 0  0.578125 0.046875 0  0.59375 0.046875 0  0.609375 0.046875 0  0.625 0.046875 0  0.640625 0.046875 0  0.65625 0.046875 0  0.671875 0.046875 0  0.6875 0.046875 0  0.703125 0.046875 0  0.71875 0.046875 0  0.734375 0.046875 0  0.75 0.046875 0  0.765625 0.046875 0  0.78125 0.046875 0  0.796875 0.046875 0  0.8125 0.046875 0  0.828125 0.046875 0  0.84375 0.046875 0  0.859375 0.046875 0  0.875 0.046875 0  0.890625 0.046875 0  0.90625 0.046875 0  0.921875 0.046875 0  0.9375 0.046875 0  0.953125 0.046875 0  0.96875 0.046875 0  0.984375 0.046875 0  1 0.046875 0  0 0.0625 0  0.015625 0.0625 0  0.03125 0.0625 0  0.046875 0.0625 0  0.0625 0.0625 0  0.078125 0.0625 0  0.09375 0.0625 0  0.109375 0.0625 0  0.125 0.0625 0  0.140625 0.0625 0  0.15625 0.0625 0  0.171875 0.0625 0  0.1875 0.0625 0  0.203125 0.0625 0  0.21875 0.0625 0  0.234375 0.0625 0  0.25 0.0625 0  0.265625 0.0625 0  0.28125 0.0625 0  0.296875 0.0625 0  0.3125 0.0625 0  0.328125 0.0625 0  0.34375 0.0625 0  0.359375 0.0625 0  0.375 0.0625 0  0.390625 0.0625 0  0.40625 0.0625 0  0.421875 0.0625 0  0.4375 0.0625 0  0.453125 0.0625 0  0.46875 0.0625 0  0.484375 0.0625 0  0.5 0.0625 0  0.515625 0.0625 0  0.53125 0.0625 0  0.546875 0.0625 0  0.5625 0.0625 0  0.578125 0.0625 0  0.59375 0.0625 0  0.609375 0.0625 0  0.625 0.0625 0  0.640625 0.0625 0  0.65625 0.0625 0  0.671875 0.0625 0  0.6875 0.0625 0  0.703125 0.0625 0  0.71875 0.0625 0  0.734375 0.0625 0  0.75 0.0625 0  0.765625 0.0625 0  0.78125 0.0625 0  0.796875 0.0625 0  0.8125 0.0625 0  0.828125 0.0625 0  0.84375 0.0625 0  0.859375 0.0625 0  0.875 0.0625 0  0.890625 0.0625 0  0.90625 0.0625 0  0.921875 0.0625 0  0.9375 0.0625 0  0.953125 0.0625 0  0.96875 0.0625 0  0.984375 0.0625 0  1 0.0625 0  0 0.078125 0  0.015625 0.078125 0  0.03125 0.078125 0  0.046875 0.078125 0  0.0625 0.078125 0  0.078125 0.078125 0  0.09375 0.078125 0  0.109375 0.078125 0  0.125 0.078125 0  0.140625 0.078125 0  0.15625 0.078125 0  0.171875 0.078125 0  0.1875 0.078125 0  0.203125 0.078125 0  0.21875 0.078125 0  0.234375 0.078125 0  0.25 0.078125 0  0.265625 0.078125 0  0.28125 0.078125 0  0.296875 0.078125 0  0.3125 0.078125 0  0.328125 0.078125 0  0.34375 0.078125 0  0.359375 0.078125 0  0.375 0.078125 0  0.390625 0.078125 0  0.40625 0.078125 0  0.421875 0.078125 0  0.4375 0.078125 0  0.453125 0.078125 0  0.46875 0.078125 0  0.484375 0.078125 0  0.5 0.078125 0  0.515625 0.078125 0  0.53125 0.078125 0  0.546875 0.078125 0  0.5625 0.078125 0  0.578125 0.078125 0  0.59375 0.078125 0  0.609375 0.078125 0  0.625 0.078125 0  0.640625 0.078125 0  0.65625 0.078125 0  0.671875 0.078125 0  0.6875 0.078125 0  0.703125 0.078125 0  0.71875 0.078125 0  0.734375 0.078125 0  0.75 0.078125 0  0.765625 0.078125 0  0.78125 0.078125 0  0.796875 0.078125 0  0.8125 0.078125 0  0.828125 0.078125 0  0.84375 0.078125 0  0.859375 0.078125 0  0.875 0.078125 0  0.890625 0.078125 0  0.90625 0.078125 0  0.921875 0.078125 0  0.9375 0.078125 0  0.953125 0.078125 0  0.96875 0.078125 0  0.984375 0.078125 0  1 0.078125 0  0 0.09375 0  0.015625 0.09375 0  0.03125 0.09375 0  0.046875 0.09375 0  0.0625 0.09375 0  0.078125 0.09375 0  0.09375 0.09375 0  0.109375 0.09375 0  0.125 0.09375 0  0.140625 0.09375 0  0.15625 0.09375 0  0.171875 0.09375 0  0.1875 0.09375 0  0.203125 0.09375 0  0.21875 0.09375 0  0.234375 0.09375 0  0.25 0.09375 0  0.265625 0.09375 0  0.28125 0.09375 0  0.296875 0.09375 0  0.3125 0.09375 0  0.328125 0.09375 0  0.34375 0.09375 0  0.359375 0.09375 0  0.375 0.09375 0  0.390625 0.09375 0  0.40625 0.09375 0  0.421875 0.09375 0  0.4375 0.09375 0  0.453125 0.09375 0  0.46875 0.09375 0  0.484375 0.09375 0  0.5 0.09375 0  0.515625 0.09375 0  0.53125 0.09375 0  0.546875 0.09375 0  0.5625 0.09375 0  0.578125 0.09375 0  0.59375 0.09375 0  0.609375 0.09375 0  0.625 0.09375 0  0.640625 0.09375 0  0.65625 0.09375 0  0.671875 0.09375 0  0.6875 0.09375 0  0.703125 0.09375 0  0.71875 0.09375 0  0.734375 0.09375 0  0.75 0.09375 0  0.765625 0.09375 0  0.78125 0.09375 0  0.796875 0.09375 0  0.8125 0.09375 0  0.828125 0.09375 0  0.84375 0.09375 0  0.859375 0.09375 0  0.875 0.09375 0  0.890625 0.09375 0  0.90625 0.09375 0  0.921875 0.09375 0  0.9375 0.09375 0  0.953125 0.09375 0  0.96875 0.09375 0  0.984375 0.09375 0  1 0.09375 0  0 0.109375 0  0.015625 0.109375 0  0.03125 0.109375 0  0.046875 0.109375 0  0.0625 0.109375 0  0.078125 0.109375 0  0.09375 0.109375 0  0.109375 0.109375 0  0.125 0.109375 0  0.140625 0.109375 0  0.15625 0.109375 0  0.171875 0.109375 0  0.1875 0.109375 0  0.203125 0.109375 0  0.21875 0.109375 0  0.234375 0.109375 0  0.25 0.109375 0  0.265625 0.109375 0  0.28125 0.109375 0  0.296875 0.109375 0  0.3125 0.109375 0  0.328125 0.109375 0  0.34375 0.109375 0  0.359375 0.109375 0  0.375 0.109375 0  0.390625 0.109375 0  0.40625 0.109375 0  0.421875 0.109375 0  0.4375 0.109375 0  0.453125 0.109375 0  0.46875 0.109375 0  0.484375 0.109375 0  0.5 0.109375 0  0.515625 0.109375 0  0.53125 0.109375 0  0.546875 0.109375 0  0.5625 0.109375 0  0.578125 0.109375 0  0.59375 0.109375 0  0.609375 0.109375 0  0.625 0.109375 0  0.640625 0.109375 0  0.65625 0.109375 0  0.671875 0.109375 0  0.6875 0.109375 0  0.703125 0.109375 0  0.71875 0.109375 0  0.734375 0.109375 0  0.75 0.109375 0  0.765625 0.109375 0  0.78125 0.109375 0  0.796875 0.109375 0  0.8125 0.109375 0  0.828125 0.109375 0  0.84375 0.109375 0  0.859375 0.109375 0  0.875 0.109375 0  0.890625 0.109375 0  0.90625 0.109375 0  0.921875 0.109375 0  0.9375 0.109375 0  0.953125 0.109375 0  0.96875 0.109375 0  0.984375 0.109375 0  1 0.109375 0  0 0.125 0  0.015625 0.125 0  0.03125 0.125 0  0.046875 0.125 0  0.0625 0.125 0  0.078125 0.125 0  0.09375 0.125 0  0.109375 0.125 0  0.125 0.12
[...]
<PointData  Scalars="f_12"> 
<DataArray  type="Float64"  Name="f_12"  format="ascii">6.3568929363645721e-01  6.3577451555778985e-01  6.3520619040929771e-01  6.3322497416639278e-01  6.3194920445672964e-01  6.3207289214464313e-01  6.3341093791359793e-01  6.3494841066684560e-01  6.3604071385648486e-01  6.3728407531914677e-01  6.3700186266914860e-01  6.3719964090854764e-01  6.3785511926962202e-01  6.3819453658122605e-01  6.3797705660115900e-01  6.3711107577991910e-01  6.3590318713861294e-01  6.3648379539895772e-01  6.3678566898424638e-01  6.3642753359518245e-01  6.3748875342418043e-01  6.3892804716967389e-01  6.4041984624459691e-01  6.4126005771596784e-01  6.4191076400014579e-01  6.4217363911680481e-01  6.4177244424199265e-01  6.4143139974212138e-01  6.4112588541283710e-01  6.4084156437969053e-01  6.4087580886535345e-01  6.3893070779791827e-01  6.3589170628039926e-01  6.3559531362597999e-01  6.3376786016416342e-01  6.3159594415875131e-01  6.2995476100429670e-01  6.3006449094834160e-01  6.3176561178769131e-01  6.3386505615957234e-01  6.3570917930215487e-01  6.3558170590180707e-01  6.3650621896856552e-01  6.3716929430353741e-01  6.3702765719145182e-01  6.3573691299858126e-01  6.3429986053574250e-01  6.3435308667546320e-01  6.3393689421121091e-01  6.3297703763981650e-01  6.3189968804299035e-01  6.3121249895520104e-01  6.3208739455981044e-01  6.3343795597379804e-01  6.3456640710294321e-01  6.3483569235386839e-01  6.3321986482415893e-01  6.3291504639463303e-01  6.3226806427186621e-01  6.3092273867622772e-01  6.3011941973730290e-01  6.2887412316155944e-01  6.2784473783022954e-01  6.2834055093566066e-01  6.2798725595647753e-01  6.3561815777038089e-01  6.3616920862258763e-01  6.3512800586888496e-01  6.3351487782579619e-01  6.3292219429127228e-01  6.3322032010549323e-01  6.3394084751155344e-01  6.3489504780951822e-01  6.3545907960098580e-01  6.3678873963282756e-01  6.3718135980788493e-01  6.3716863048816463e-01  6.3729419575844781e-01  6.3754473067551909e-01  6.3757177447014801e-01  6.3722825586658294e-01  6.3618034546255653e-01  6.3660170593304011e-01  6.3720363945462144e-01  6.3712443645615124e-01  6.3813194155768826e-01  6.3863242360873751e-01  6.3992238805138624e-01  6.4105303048478779e-01  6.4174068200752576e-01  6.4221364490011046e-01  6.4169779026980212e-01  6.4229440673095628e-01  6.4154003990804753e-01  6.4103764584168821e-01  6.3986941829202315e-01  6.3868972278612612e-01  6.3603251998504373e-01  6.3509152668129354e-01  6.3403977632163155e-01  6.3215274597725157e-01  6.3040170224308112e-01  6.3048036218164705e-01  6.3193245359266581e-01  6.3320816983745265e-01  6.3536664575436796e-01  6.3647573172381666e-01  6.3654747072489681e-01  6.3724245189941298e-01  6.3648056174305490e-01  6.3515773291259747e-01  6.3389146653560369e-01  6.3423173691197432e-01  6.3350134866018382e-01  6.3260846281866567e-01  6.3152815889790270e-01  6.3123451613813641e-01  6.3187141090518073e-01  6.3342592534833175e-01  6.3480581242616230e-01  6.3515362732778169e-01  6.3405321381636559e-01  6.3320258301322940e-01  6.3227437327218494e-01  6.3076343563656889e-01  6.2994792296475277e-01  6.2867185732956099e-01  6.2857064250499783e-01  6.2826815659990942e-01  6.2746128137246293e-01  6.3523273207965625e-01  6.3583455404756628e-01  6.3510834342443900e-01  6.3378219425956872e-01  6.3374914201004473e-01  6.3460388450792582e-01  6.3497215257593753e-01  6.3578655207881962e-01  6.3668855018565840e-01  6.3633073314563637e-01  6.3704350383727637e-01  6.3746105097875871e-01  6.3700852804372532e-01  6.3663960890428095e-01  6.3685702075586947e-01  6.3657779064131848e-01  6.3626793914363355e-01  6.3647573753254860e-01  6.3755261104927619e-01  6.3823636259122030e-01  6.3895264581714506e-01  6.3862563083751034e-01  6.3933084150121133e-01  6.4098518513743019e-01  6.4203393020654775e-01  6.4193563816792010e-01  6.4211167743524167e-01  6.4189897134952556e-01  6.4156246207259882e-01  6.4035053403708342e-01  6.3967405612637107e-01  6.3808198034652575e-01  6.3598549544578531e-01  6.3552529989331097e-01  6.3448522720665013e-01  6.3253365029995423e-01  6.3118181312444488e-01  6.3114073271914717e-01  6.3192892456329397e-01  6.3332634116393161e-01  6.3575984628820004e-01  6.3662014497076436e-01  6.3758184595684320e-01  6.3634090549704048e-01  6.3491941297336407e-01  6.3390425144847573e-01  6.3274883060292619e-01  6.3252739946727166e-01  6.3197277366957993e-01  6.3190156700695344e-01  6.3141880400807293e-01  6.3051787864233066e-01  6.3172349064629751e-01  6.3340755792968972e-01  6.3450863813719161e-01  6.3466518498285729e-01  6.3438184858361579e-01  6.3332256652214269e-01  6.3219672310764008e-01  6.3092133303640641e-01  6.2978511922967872e-01  6.2899099955544480e-01  6.2912831958151216e-01  6.2814080277165008e-01  6.2736898010633646e-01  6.3540729593506318e-01  6.3535134857612441e-01  6.3529835657618139e-01  6.3504964558724109e-01  6.3476025715685180e-01  6.3492265154170213e-01  6.3534166171724649e-01  6.3663228804531846e-01  6.3720178819350615e-01  6.3674117283510201e-01  6.3719991249749763e-01  6.3745245725499333e-01  6.3673357324653812e-01  6.3627792373745395e-01  6.3695816055839904e-01  6.3693770868638300e-01  6.3705980843873045e-01  6.3757548991015578e-01  6.3753175189650646e-01  6.3818916666556558e-01  6.3914303327760413e-01  6.3926596936235824e-01  6.4001360201038260e-01  6.4020940582999186e-01  6.4126302341626285e-01  6.4212179482488718e-01  6.4241014921359618e-01  6.4171503536495467e-01  6.4120460843377058e-01  6.3957498719016126e-01  6.3829866232641574e-01  6.3796904882300898e-01  6.3676989255821803e-01  6.3559483218977619e-01  6.3456074427047782e-01  6.3291186451797121e-01  6.3130721800832712e-01  6.3092911388908990e-01  6.3228605645636737e-01  6.3443392402132437e-01  6.3544265168990166e-01  6.3618008751850641e-01  6.3659023073453547e-01  6.3532110500013006e-01  6.3431622202680726e-01  6.3342466362197125e-01  6.3265043386973396e-01  6.3224943481073737e-01  6.3163643483455034e-01  6.3183530533185883e-01  6.3196429027770917e-01  6.3145240617510978e-01  6.3189982535804379e-01  6.3291235854124639e-01  6.3382477089046008e-01  6.3488789072360263e-01  6.3433881713098272e-01  6.3379323124613551e-01  6.3249718922959297e-01  6.3201885469015495e-01  6.3050611364274045e-01  6.2965218496534536e-01  6.2914412545391663e-01  6.2804252706246055e-01  6.2745144345854320e-01  6.3459520007930570e-01  6.3509255517920482e-01  6.3548008667270417e-01  6.3520687957299504e-01  6.3535906102664419e-01  6.3443003608599602e-01  6.3508697626812172e-01  6.3562390317570594e-01  6.3633738014962049e-01  6.3718297769005117e-01  6.3761278515856246e-01  6.3835338689658194e-01  6.3705452672541796e-01  6.3688632075595930e-01  6.3790875788263601e-01  6.3818425833543535e-01  6.3761308520575666e-01  6.3790391198302754e-01  6.3783923287262179e-01  6.3867297386956756e-01  6.3891278563825349e-01  6.3972759914543575e-01  6.4044660737769366e-01  6.4086332452587236e-01  6.4131631157948332e-01  6.4256912613060424e-01  6.4269897215399441e-01  6.4244912723557979e-01  6.4136288379973116e-01  6.3974702117312776e-01  6.3861092117991813e-01  6.3849825348444300e-01  6.3747089415438019e-01  6.3637730903564194e-01  6.3534164697684870e-01  6.3404181629676259e-01  6.3235555314881953e-01  6.3171199745206696e-01  6.3250889242760322e-01  6.3420802725193060e-01  6.3534832719906176e-01  6.3551742439249070e-01  6.3443737397746969e-01  6.3379163640408631e-01  6.3299409032640819e-01  6.3263384213670404e-01  6.3286050589371212e-01  6.3255798377022354e-01  6.3235456781297428e-01  6.3210260172822907e-01  6.3244814118114911e-01  6.3276039915364790e-01  6.3290251807024911e-01  6.3418997341711025e-01  6.3516790334733630e-01  6.3621597655918227e-01  6.3592409146066242e-01  6.3407457583682958e-01  6.3279026363620872e-01  6.3176902220921649e-01  6.3098418357424180e-01  6.3047456934633794e-01  6.2938035984913343e-01  6.2805451602836626e-01  6.2814621034069951e-01  6.3482420269308926e-01  6.3545758915249051e-01  6.3598742980761791e-01  6.3562430683122306e-01  6.3527223421895873e-01  6.3490517659456325e-01  6.3526801232098717e-01  6.3497596472082274e-01  6.3557840045605452e-01  6.3639286012511920e-01  6.3743799169758919e-01  6.3804138152396450e-01  6.3751695255759322e-01  6.3742471163823533e-01  6.3772511001666288e-01  6.3838727755046176e-01  6.3803700339122293e-01  6.3809622741372540e-01  6.3851399733888181e-01  6.3932803928357684e-01  6.3902561353993870e-01  6.3878966786887492e-01  6.3984170419722441e-01  6.4067522180355807e-01  6.4111506846712329e-01  6.4219200420317546e-01  6.4264809912481913e-01  6.4187919854774245e-01  6.4105557575897221e-01  6.4038398101507865e-01  6.4057460344225359e-01  6.3977929826897417e-01  6.3824435699560123e-01  6.3706651378444490e-01  6.3584081142861615e-01  6.3409672475346313e-01  6.3363360256612478e-01  6.3289257108129782e-01  6.3322953996135012e-01  6.3409295636302843e-01  6.3545750180057337e-01  6.3487509271150122e-01  6.3363134533522458e-01  6.3281119485111614e-01  6.3173953001406236e-01  6.3235913874348737e-01  6.3376589787998128e-01  6.3367528164094789e-01  6.3309265766686595e-01  6.3265289086193555e-01  6.3241030259127684e-01  6.3308177498818852e-01  6.3376472573385978e-01  6.3501987846174612e-01  6.3686382411936238e-01  6.3719304935322230e-01  6.3695440100375023e-01  6.3547707177242230e-01  6.3339986201980680e-01  6.3198301560173398e-01  6.3141474750041271e-01  6.3075320050171202e-01  6.3020914471070433e-01  6.2915872769473580e-01  6.2867099788968184e-01  6.3431995830703958e-01  6.3513289399221384e-01  6.3539488687502821e-01  6.3567947151402371e-01  6.3578706069670932e-01  6.3515734064218254e-01  6.3531263545745575e-01  6.3542565734275802e-01  6.3507941024854886e-01  6.3565409698927333e-01  6.3652193659039435e-01  6.3701084668689179e-01  6.3665157045497078e-01  6.3708495532108544e-01  6.3709474898464680e-01  6.3718647731146805e-01  6.3687525595514183e-01  6.3830549298549122e-01  6.3922544544021920e-01  6.4009929449626535e-01  6.4002635032495969e-01  6.3880348602847026e-01  6.3823564578750402e-01  6.3926976282027259e-01  6.4022706084579339e-01  6.4106552450504672e-01  6.4158865092643613e-01  6.4059054385522507e-01  6.4020903189289835e-01  6.4038642602190599e-01  6.4059888487825434e-01  6.3994162045101521e-01  6.3845099277711415e-01  6.3720427381379041e-01  6.3504683837420006e-01  6.3369823337812492e-01  6.3313943235839765e-01  6.3341767644271341e-01  6.3359353986039402e-01  6.3423220762572619e-01  6.3429654092981391e-01  6.3439613572659026e-01  6.3376880962874271e-01  6.3288302965762711e-01  6.3205271277093156e-01  6.3301945222784262e-01  6.3404060094949621e-01  6.3391827254844546e-01  6.3377177083852321e-01  6.3310615297158512e-01  6.3239271949701958e-01  6.3349282307078592e-01  6.3482448140823156e-01  6.3630492760809931e-01  6.3708532331425693e-01  6.3759966643843458e-01  6.3725526859124348e-01  6.3615507313866460e-01  6.3477449471708547e-01  6.3333984793918663e-01  6.3242444861311409e-01  6.3161715531993190e-01  6.3075104410262683e-01  6.2967686540583079e-01  6.2949648417543358e-01  6.3468066398572098e-01  6.3479631570615647e-01  6.3505940206797340e-01  6.3581991193714393e-01  6.3640971516654554e-01  6.3614057031902105e-01  6.3620064757751194e-01  6.3510793092132323e-01  6.3453984804717023e-01  6.3555979338428437e-01  6.3670494995315252e-01  6.3668286796104034e-01  6.3576245897768269e-01  6.3575725289457741e-01  6.3597392831681088e-01  6.3602411510319035e-01  6.3649578870278500e-01  6.3793443443950681e-01  6.3945710513909060e-01  6.4011519432711339e-01  6.4012093042561335e-01  6.3885595659132077e-01  6.3804241408439488e-01  6.3833213973844138e-01  6.3943724115504497e-01  6.4039524937365055e-01  6.4029136353089211e-01  6.3882233398749766e-01  6.3834412081176173e-01  6.3971321544047810e-01  6.3995101181140090e-01  6.3947281074713092e-01  6.3842675007832683e-01  6.3651722288721213e-01  6.3477162325048631e-01  6.3337374505025956e-01  6.3331413409976300e-01  6.3356321003347349e-01  6.3356031484190867e-01  6.3332019628261926e-01  6.3285562105438231e-01  6.3329697540517826e-01  6.3462985498729163e-01  6.3385782927073797e-01  6.3298896813557770e-01  6.3334059458174208e-01  6.3376243974256996e-01  6.3354057532920494e-01  6.3338944987870405e-01  6.3361615931667647e-01  6.3395909912227866e-01  6.3421938189959071e-01  6.3537208279398694e-01  6.3667574146616013e-01  6.3716488451587372e-01  6.3771385383732226e-01  6.3748306717703140e-01  6.3706487038854942e-01  6.3579913662243925e-01  6.3452972125724105e-01  6.3352640764987578e-01  6.3252492828543894e-01  6.3137809736494344e-01  6.3118081407287485e-01  6.3167371076212131e-01  6.3462408896934275e-01  6.3493466610923377e-01  6.3582396986528877e-01  6.3606393849515697e-01  6.3660896259294075e-01  6.3679908440663779e-01  6.3690237599277688e-01  6.3580952254456646e-01  6.3487768398613043e-01  6.3509795666559432e-01  6.3646349565293281e-01  6.3628850158006878e-01  6.3576357453803989e-01  6.3525844534602161e-01  6.3583355124673224e-01  6.3639656008885515e-01  6.3720761367968670e-01  6.3828789905033467e-01  6.3929569045249335e-01  6.4027160590207588e-01  6.3939789144023962e-01  6.3851237184193921e-01  6.3786636433500166e-01  6.3825132389501449e-01  6.3881095976070534e-01  6.3977169736286643e-01  6.3968526893705369e-01  6.3839341467020128e-01  6.3869314255875598e-01  6.3922120862565912e-01  6.3902990969240081e-01  6.3802590132481651e-01  6.3706855364608139e-01  6.3617110740950333e-01  6.3521802507766589e-01  6.3395540688353413e-01  6.3386612475900850e-01  6.3385142807915262e-01  6.3308369699644729e-01  6.3209231766811502e-01  6.3207249644587793e-01  6.3244733926960650e-01  6.3331683238615533e-01  6.3304098332180170e-01  6.3264295633421619e-01  6.3262766331764841e-01  6.3306836183962001e-01  6.3353319533480212e-01  6.3349012421190898e-01  6.3368707183227402e-01  6.3429179193341101e-01  6.3448343478878833e-01  6.3448250268245909e-01  6.3626149332241766e-01  6.3734884430698768e-01  6.3816680858188235e-01  6.3862017962012774e-01  6.3773264932268536e-01  6.3651784856574511e-01  6.3561060291092020e-01  6.3446276294936010e-01  6.3326263480129885e-01  6.3220211815729477e-01  6.3208405905617338e-01  6.3215336639296593e-01  6.3540576140955474e-01  6.3569482165737645e-01  6.3618603677633490e-01  6.3623865317938166e-01  6.3792542812761943e-01  6.3865024310543128e-01  6.3740903750682965e-01  6.3699668696585110e-01  6.3570046008681513e-01  6.3428657703590252e-01  6.3554251362995418e-01  6.3577114062758944e-01  6.3657944343634865e-01  6.3569123193774124e-01  6.3582957773911852e-01  6.3676338424325107e-01  6.3788126803403478e-01  6.3815253137668360e-01  6.3945981861410284e-01  6.4030730929707236e-01  6.3968355734831872e-01  6.3841327719579533e-01  6.3822497871611916e-01  6.3903246116630141e-01  6.3955567243062272e-01  6.3921897530413307e-01  6.3839422025674641e-01  6.3900460621199362e-01  6.3938528942441575e-01  6.3958967737166172e-01  6.3877857531860349e-01  6.3784621120912455e-01  6.3719222101892692e-01  6.3580369598588904e-01  6.3523154307492569e-01  6.3437561876849136e-01  6.3371993351725764e-01  6.3409322019641701e-01  6.3353357086553597e-01  6.3219538285150423e-01  6.3183385086831190e-01  6.3248143038352866e-01  6.3259317381994651e-01  6.3254326255294002e-01  6.3220001653022317e-01  6.3168347643435430e-01  6.3184733361000978e-01  6.3254403311376306e-01  6.3267808957548599e-01  6.3330092632581880e-01  6.3431175876825296e-01  6.3369188794361209e-01  6.3425431185441528e-01  6.3607935526068948e-01  6.3751600263882291e-01  6.3818085119524282e-01  6.3819346187718984e-01  6.3835969355697264e-01  6.3761414525891913e-01  6.3598084131643307e-01  6.3521878196263337e-01  6.3465685253227266e-01  6.3329658235734021e-01  6.3332695101612013e-01  6.3301135095235694e-01  6.3563247741759543e-01  6.3584618195946763e-01  6.3710846067411697e-01  6.3755705543926500e-01  6.3821792383461329e-01  6.3854592114976572e-01  6.3819389247052871e-01  6.3734943301797320e-01  6.3585483993410252e-01  6.3424423745745773e-01  6.3464136989834585e-01  6.3508011170794421e-01  6.3597854918292318e-01  6.3594972574940201e-01  6.3565869138526554e-01  6.3680704777202912e-01  6.3817171101051928e-01  6.3820148905425234e-01  6.3858295592029213e-01  6.3953675335494475e-01  6.3997518872041226e-01  6.3947549657972980e-01  6.3932989657404293e-01  6.3916139231355484e-01  6.3914110807521596e-01  6.3838493974561161e-01  6.3846043116519557e-01  6.3884457345012957e-01  6.3947617293060399e-01  6.3897449811585683e-01  6.3818992130480989e-01  6.3746030534448217e-01  6.3682067559014033e-01  6.3622783063251964e-01  6.3566217010018033e-01  6.3559546901235553e-01  6.3504654522361725e-01  6.3433673945043467e-01  6.3349051711540894e-01  6.3294411631209135e-01  6.3280368947168864e-01  6.3267086205300060e-01  6.3186089891705022e-01  6.3127308263367066e-01  6.3078139090790031e-01  6.3086666326060903e-01  6.3124445691088538e-01  6.3165253800734622e-01  6.3246056447720256e-01  6.3368172557395352e-01  6.3420565019068620e-01  6.3382407914429617e-01  6.3451501528468579e-01  6.3579106838547950e-01  6.3744508980992554e-01  6.3797737952642719e-01  6.3772538136594470e-01  6.3805635414025608e-01  6.3724191798911711e-01  6.3632446034006140e-01  6.3592541179909079e-01  6.3569462626009587e-01  6.3549395995383040e-01  6.3549130687654731e-01  6.3512113293334349e-01  6.3496983990778744e-01  6.3586528475159509e-01  6.3718470702227270e-01  6.3732916475377754e-01  6.3832142634998490e-01  6.3882470297563432e-01  6.3778076403670092e-01  6.3706059565929263e-01  6.3602039006846167e-01  6.3403728530630632e-01  6.3337821298616437e-01  6.3392681426695729e-01  6.3482791405254602e-01  6.3557714872525473e-01  6.3599263343324497e-01  6.3666643381282284e-01  6.3781061339689216e-01  6.3787785955541587e-01  6.3806316167492616e-01  6.3886834069326526e-01  6.3950416006085775e-01  6.3894249720680540e-01  6.3857374413621881e-01  6.3808858977519645e-01  6.3788571558260065e-01  6.3812794185614585e-01  6.3771592346402739e-01  6.3774029929261744e-01  6.3827965824338229e-01  6.3833551142969969e-01  6.3807420660867398e-01  6.3788217419395943e-01  6.3762056121401689e-01  6.3739040932034818e-01  6.3668635909747096e-01  6.3669480768181674e-01  6.3580643120986557e-01  6.3482387761549963e-01  6.3421456337453630e-01  6.3414239313820386e-01  6.3379222637862731e-01  6.3254928910673269e-01  6.3085232480637843e-01  6.3045630939536290e-01  6.3011263483222735e-01  6.2944073496462061e-01  6.2983235916831515e-01  6.3082955572090937e-01  6.3224772469644119e-01  6.3356753174191405e-01  6.3388098294105821e-01  6.3423049222918992e-01  6.3558885954687505e-01  6.3651783109797677e-01  6.3712486802045132e-01  6.3723741990528737e-01  6.3740086215265401e-01  6.3757626107959287e-01  6.3713757288558537e-01  6.3674935561527035e-01  6.3704604880037574e-01  6.3669228522586963e-01  6.3707843472616843e-01  6.3745953877965023e-01  6.3750192405267447e-01  6.3382380242833736e-01  6.3440036449801573e-01  6.3554899903059214e-01  6.3656615521435034e-01  6.3763127640631001e-01  6.3773175158412909e-01  6.3737849076765241e-01  6.3731181117625557e-01  6.3653336854823439e-01  6.3441248543787765e-01  6.3336923268779377e-01  6.3381745358154584e-01  6.3440250203018866e-01  6.3438717726253668e-01  6.3496280362247304e-01  6.3596385699790148e-01  6.3678906342154973e-01  6.3694178021512315e-01  6.3748915549366658e-01  6.3783331711339508e-01  6.3785762356317466e-01  6.3748246683536491e-01  6.3682386990098283e-01  6.3635182548588409e-01  6.3689804846146580e-01  6.3793848462937752e-01  6.3834719066570556e-01  6.3777452089178777e-01  6.3786512111343818e-01  6.3845220051652296e-01  6.3877913959370269e-01  6.3807666109372552e-01  6.3734610252913138e-01  6.3666472716311084e-01  6.3661183145139155e-01  6.3547374518173905e-01  6.3497425126748497e-01  6.3429168050861817e-01  6.3388213830187656e-01  6.3353740244580370e-01  6.3272221766631775e-01  6.3134504742048592e-01  6.2899192634489298e-01  6.2829927231848171e-01  6.2866873846508986e-01  6.2907887689032682e-01  6.2943682509722887e-01  6.3123021063188356e-01  6.3209969035386637e-01  6.3360529279746169e