<?xml version="1.0"?>
<VTKFile type="UnstructuredGrid"  version="0.1"  >
<UnstructuredGrid>
<Piece  NumberOfPoints="4225" NumberOfCells="8192">
<Points>
<DataArray  type="Float64"  NumberOfComponents="3"  format="ascii">0 0 0  0.015625 0 0  0.03125 0 0  0.046875 0 0  0.0625 0 0  0.078125 0 0  0.09375 0 0  0.109375 0 0  0.125 0 0  0.140625 0 0  0.15625 0 0  0.171875 0 0  0.1875 0 0  0.203125 0 0  0.21875 0 0  0.234375 0 0  0.25 0 0  0.265625 0 0  0.28125 0 0  0.296875 0 0  0.3125 0 0  0.328125 0 0  0.34375 0 0  0.359375 0 0  0.375 0 0  0.390625 0 0  0.40625 0 0  0.421875 0 0  0.4375 0 0  0.453125 0 0  0.46875 0 0  0.484375 0 0  0.5 0 0  0.515625 0 0  0.53125 0 0  0.546875 0 0  0.5625 0 0  0.578125 0 0  0.59375 0 0  0.609375 0 0  0.625 0 0  0.640625 0 0  0.65625 0 0  0.671875 0 0  0.6875 0 0  0.703125 0 0  0.71875 0 0  0.734375 0 0  0.75 0 0  0.765625 0 0  0.78125 0 0  0.796875 0 0  0.8125 0 0  0.828125 0 0  0.84375 0 0  0.859375 0 0  0.875 0 0  0.890625 0 0  0.90625 0 0  0.921875 0 0  0.9375 0 0  0.953125 0 0  0.96875 0 0  0.984375 0 0  1 0 0  0 0.015625 0  0.015625 0.015625 0  0.03125 0.015625 0  0.046875 0.015625 0  0.0625 0.015625 0  0.078125 0.015625 0  0.09375 0.015625 0  0.109375 0.015625 0  0.125 0.015625 0  0.140625 0.015625 0  0.15625 0.015625 0  0.171875 0.015625 0  0.1875 0.015625 0  0.203125 0.015625 0  0.21875 0.015625 0  0.234375 0.015625 0  0.25 0.015625 0  0.265625 0.015625 0  0.28125 0.015625 0  0.296875 0.015625 0  0.3125 0.015625 0  0.328125 0.015625 0  0.34375 0.015625 0  0.359375 0.015625 0  0.375 0.015625 0  0.390625 0.015625 0  0.40625 0.015625 0  0.421875 0.015625 0  0.4375 0.015625 0  0.453125 0.015625 0  0.46875 0.015625 0  0.484375 0.015625 0  0.5 0.015625 0  0.515625 0.015625 0  0.53125 0.015625 0  0.546875 0.015625 0  0.5625 0.015625 0  0.578125 0.015625 0  0.59375 0.015625 0  0.609375 0.015625 0  0.625 0.015625 0  0.640625 0.015625 0  0.65625 0.015625 0  0.671875 0.015625 0  0.6875 0.015625 0  0.703125 0.015625 0  0.71875 0.015625 0  0.734375 0.015625 0  0.75 0.015625 0  0.765625 0.015625 0  0.78125 0.015625 0  0.796875 0.015625 0  0.8125 0.015625 0  0.828125 0.015625 0  0.84375 0.015625 0  0.859375 0.015625 0  0.875 0.015625 0  0.890625 0.015625 0  0.90625 0.015625 0  0.921875 0.015625 0  0.9375 0.015625 0  0.953125 0.015625 0  0.96875 0.015625 0  0.984375 0.015625 0  1 0.015625 0  0 0.03125 0  0.015625 0.03125 0  0.03125 0.03125 0  0.046875 0.03125 0  0.0625 0.03125 0  0.078125 0.03125 0  0.09375 0.03125 0  0.109375 0.03125 0  0.125 0.03125 0  0.140625 0.03125 0  0.15625 0.03125 0  0.171875 0.03125 0  0.1875 0.03125 0  0.203125 0.03125 0  0.21875 0.03125 0  0.234375 0.03125 0  0.25 0.03125 0  0.265625 0.03125 0  0.28125 0.03125 0  0.296875 0.03125 0  0.3125 0.03125 0  0.328125 0.03125 0  0.34375 0.03125 0  0.359375 0.03125 0  0.375 0.03125 0  0.390625 0.03125 0  0.40625 0.03125 0  0.421875 0.03125 0  0.4375 0.03125 0  0.453125 0.03125 0  0.46875 0.03125 0  0.484375 0.03125 0  0.5 0.03125 0  0.515625 0.03125 0  0.53125 0.03125 0  0.546875 0.03125 0  0.5625 0.03125 0  0.578125 0.03125 0  0.59375 0.03125 0  0.609375 0.03125 0  0.625 0.03125 0  0.640625 0.03125 0  0.65625 0.03125 0  0.671875 0.03125 0  0.6875 0.03125 0  0.703125 0.03125 0  0.71875 0.03125 0  0.734375 0.03125 0  0.75 0.03125 0  0.765625 0.03125 0  0.78125 0.03125 0  0.796875 0.03125 0  0.8125 0.03125 0  0.828125 0.03125 0  0.84375 0.03125 0  0.859375 0.03125 0  0.875 0.03125 0  0.890625 0.03125 0  0.90625 0.03125 0  0.921875 0.03125 0  0.9375 0.03125 0  0.953125 0.03125 0  0.96875 0.03125 0  0.984375 0.03125 0  1 0.03125 0  0 0.046875 0  0.015625 0.046875 0  0.03125 0.046875 0  0.046875 0.046875 0  0.0625 0.046875 0  0.078125 0.046875 0  0.09375 0.046875 0  0.109375 0.046875 0  0.125 0.046875 0  0.140625 0.046875 0  0.15625 0.046875 0  0.171875 0.046875 0  0.1875 0.046875 0  0.203125 0.046875 0  0.21875 0.046875 0  0.234375 0.046875 0  0.25 0.046875 0  0.265625 0.046875 0  0.28125 0.046875 0  0.296875 0.046875 0  0.3125 0.046875 0  0.328125 0.046875 0  0.34375 0.046875 0  0.359375 0.046875 0  0.375 0.046875 0  0.390625 0.046875 0  0.40625 0.046875 0  0.421875 0.046875 0  0.4375 0.046875 0  0.453125 0.046875 0  0.46875 0.046875 0  0.484375 0.046875 0  0.5 0.046875 0  0.515625 0.046875 0  0.53125 0.046875 0  0.546875 0.046875 0  0.5625 0.046875 0  0.578125 0.046875 0  0.59375 0.046875 0  0.609375 0.046875 0  0.625 0.046875 0  0.640625 0.046875 0  0.65625 0.046875 0  0.671875 0.046875 0  0.6875 0.046875 0  0.703125 0.046875 0  0.71875 0.046875 0  0.734375 0.046875 0  0.75 0.046875 0  0.765625 0.046875 0  0.78125 0.046875 0  0.796875 0.046875 0  0.8125 0.046875 0  0.828125 0.046875 0  0.84375 0.046875 0  0.859375 0.046875 0  0.875 0.046875 0  0.890625 0.046875 0  0.90625 0.046875 0  0.921875 0.046875 0  0.9375 0.046875 0  0.953125 0.046875 0  0.96875 0.046875 0  0.984375 0.046875 0  1 0.046875 0  0 0.0625 0  0.015625 0.0625 0  0.03125 0.0625 0  0.046875 0.0625 0  0.0625 0.0625 0  0.078125 0.0625 0  0.09375 0.0625 0  0.109375 0.0625 0  0.125 0.0625 0  0.140625 0.0625 0  0.15625 0.0625 0  0.171875 0.0625 0  0.1875 0.0625 0  0.203125 0.0625 0  0.21875 0.0625 0  0.234375 0.0625 0  0.25 0.0625 0  0.265625 0.0625 0  0.28125 0.0625 0  0.296875 0.0625 0  0.3125 0.0625 0  0.328125 0.0625 0  0.34375 0.0625 0  0.359375 0.0625 0  0.375 0.0625 0  0.390625 0.0625 0  0.40625 0.0625 0  0.421875 0.0625 0  0.4375 0.0625 0  0.453125 0.0625 0  0.46875 0.0625 0  0.484375 0.0625 0  0.5 0.0625 0  0.515625 0.0625 0  0.53125 0.0625 0  0.546875 0.0625 0  0.5625 0.0625 0  0.578125 0.0625 0  0.59375 0.0625 0  0.609375 0.0625 0  0.625 0.0625 0  0.640625 0.0625 0  0.65625 0.0625 0  0.671875 0.0625 0  0.6875 0.0625 0  0.703125 0.0625 0  0.71875 0.0625 0  0.734375 0.0625 0  0.75 0.0625 0  0.765625 0.0625 0  0.78125 0.0625 0  0.796875 0.0625 0  0.8125 0.0625 0  0.828125 0.0625 0  0.84375 0.0625 0  0.859375 0.0625 0  0.875 0.0625 0  0.890625 0.0625 0  0.90625 0.0625 0  0.921875 0.0625 0  0.9375 0.0625 0  0.953125 0.0625 0  0.96875 0.0625 0  0.984375 0.0625 0  1 0.0625 0  0 0.078125 0  0.015625 0.078125 0  0.03125 0.078125 0  0.046875 0.078125 0  0.0625 0.078125 0  0.078125 0.078125 0  0.09375 0.078125 0  0.109375 0.078125 0  0.125 0.078125 0  0.140625 0.078125 0  0.15625 0.078125 0  0.171875 0.078125 0  0.1875 0.078125 0  0.203125 0.078125 0  0.21875 0.078125 0  0.234375 0.078125 0  0.25 0.078125 0  0.265625 0.078125 0  0.28125 0.078125 0  0.296875 0.078125 0  0.3125 0.078125 0  0.328125 0.078125 0  0.34375 0.078125 0  0.359375 0.078125 0  0.375 0.078125 0  0.390625 0.078125 0  0.40625 0.078125 0  0.421875 0.078125 0  0.4375 0.078125 0  0.453125 0.078125 0  0.46875 0.078125 0  0.484375 0.078125 0  0.5 0.078125 0  0.515625 0.078125 0  0.53125 0.078125 0  0.546875 0.078125 0  0.5625 0.078125 0  0.578125 0.078125 0  0.59375 0.078125 0  0.609375 0.078125 0  0.625 0.078125 0  0.640625 0.078125 0  0.65625 0.078125 0  0.671875 0.078125 0  0.6875 0.078125 0  0.703125 0.078125 0  0.71875 0.078125 0  0.734375 0.078125 0  0.75 0.078125 0  0.765625 0.078125 0  0.78125 0.078125 0  0.796875 0.078125 0  0.8125 0.078125 0  0.828125 0.078125 0  0.84375 0.078125 0  0.859375 0.078125 0  0.875 0.078125 0  0.890625 0.078125 0  0.90625 0.078125 0  0.921875 0.078125 0  0.9375 0.078125 0  0.953125 0.078125 0  0.96875 0.078125 0  0.984375 0.078125 0  1 0.078125 0  0 0.09375 0  0.015625 0.09375 0  0.03125 0.09375 0  0.046875 0.09375 0  0.0625 0.09375 0  0.078125 0.09375 0  0.09375 0.09375 0  0.109375 0.09375 0  0.125 0.09375 0  0.140625 0.09375 0  0.15625 0.09375 0  0.171875 0.09375 0  0.1875 0.09375 0  0.203125 0.09375 0  0.21875 0.09375 0  0.234375 0.09375 0  0.25 0.09375 0  0.265625 0.09375 0  0.28125 0.09375 0  0.296875 0.09375 0  0.3125 0.09375 0  0.328125 0.09375 0  0.34375 0.09375 0  0.359375 0.09375 0  0.375 0.09375 0  0.390625 0.09375 0  0.40625 0.09375 0  0.421875 0.09375 0  0.4375 0.09375 0  0.453125 0.09375 0  0.46875 0.09375 0  0.484375 0.09375 0  0.5 0.09375 0  0.515625 0.09375 0  0.53125 0.09375 0  0.546875 0.09375 0  0.5625 0.09375 0  0.578125 0.09375 0  0.59375 0.09375 0  0.609375 0.09375 0  0.625 0.09375 0  0.640625 0.09375 0  0.65625 0.09375 0  0.671875 0.09375 0  0.6875 0.09375 0  0.703125 0.09375 0  0.71875 0.09375 0  0.734375 0.09375 0  0.75 0.09375 0  0.765625 0.09375 0  0.78125 0.09375 0  0.796875 0.09375 0  0.8125 0.09375 0  0.828125 0.09375 0  0.84375 0.09375 0  0.859375 0.09375 0  0.875 0.09375 0  0.890625 0.09375 0  0.90625 0.09375 0  0.921875 0.09375 0  0.9375 0.09375 0  0.953125 0.09375 0  0.96875 0.09375 0  0.984375 0.09375 0  1 0.09375 0  0 0.109375 0  0.015625 0.109375 0  0.03125 0.109375 0  0.046875 0.109375 0  0.0625 0.109375 0  0.078125 0.109375 0  0.09375 0.109375 0  0.109375 0.109375 0  0.125 0.109375 0  0.140625 0.109375 0  0.15625 0.109375 0  0.171875 0.109375 0  0.1875 0.109375 0  0.203125 0.109375 0  0.21875 0.109375 0  0.234375 0.109375 0  0.25 0.109375 0  0.265625 0.109375 0  0.28125 0.109375 0  0.296875 0.109375 0  0.3125 0.109375 0  0.328125 0.109375 0  0.34375 0.109375 0  0.359375 0.109375 0  0.375 0.109375 0  0.390625 0.109375 0  0.40625 0.109375 0  0.421875 0.109375 0  0.4375 0.109375 0  0.453125 0.109375 0  0.46875 0.109375 0  0.484375 0.109375 0  0.5 0.109375 0  0.515625 0.109375 0  0.53125 0.109375 0  0.546875 0.109375 0  0.5625 0.109375 0  0.578125 0.109375 0  0.59375 0.109375 0  0.609375 0.109375 0  0.625 0.109375 0  0.640625 0.109375 0  0.65625 0.109375 0  0.671875 0.109375 0  0.6875 0.109375 0  0.703125 0.109375 0  0.71875 0.109375 0  0.734375 0.109375 0  0.75 0.109375 0  0.765625 0.109375 0  0.78125 0.109375 0  0.796875 0.109375 0  0.8125 0.109375 0  0.828125 0.109375 0  0.84375 0.109375 0  0.859375 0.109375 0  0.875 0.109375 0  0.890625 0.109375 0  0.90625 0.109375 0  0.921875 0.109375 0  0.9375 0.109375 0  0.953125 0.109375 0  0.96875 0.109375 0  0.984375 0.109375 0  1 0.109375 0  0 0.125 0  0.015625 0.125 0  0.03125 0.125 0  0.046875 0.125 0  0.0625 0.125 0  0.078125 0.125 0  0.09375 0.125 0  0.109375 0.125 0  0.125 0.12
[...]
<PointData  Scalars="f_128"> 
<DataArray  type="Float64"  Name="f_128"  format="ascii">5.4513479927988961e-01  6.5757290563707316e-01  7.1742853561941999e-01  7.0310651107919830e-01  7.0303789756564206e-01  4.2602975168695273e-01  6.2405417082235881e-01  7.6669173537761848e-01  7.9405950393713387e-01  6.8721705932371968e-01  4.9701503170596095e-01  4.4261847932601633e-01  8.0971531051933288e-01  7.5460961907942137e-01  5.1811516356534759e-01  3.9844167258538116e-01  6.2039515495050723e-01  8.7213896389283097e-01  7.8382043601658813e-01  5.3367372667267521e-01  4.0265157651933459e-01  4.7107337305042501e-01  7.3180874023365217e-01  5.2231759118226928e-01  5.8241791239659735e-01  5.0719362261903078e-01  5.2421175827565336e-01  4.9649962961080701e-01  7.7750125269448067e-01  6.2854964591443285e-01  7.9871492751135453e-01  7.2578477778182204e-01  4.5964761584812208e-01  7.4125673330847253e-01  4.3271339739166453e-01  4.8245118239752571e-01  5.0872004732703902e-01  4.0114385030666688e-01  4.9921953167112193e-01  8.0890002286479012e-01  8.4915582991280814e-01  3.8132438520289658e-01  6.5271189850046141e-01  4.8103612874697815e-01  7.5923673516280599e-01  8.1001689996003567e-01  5.2120760364645191e-01  6.8092208343114669e-01  8.6469245209561474e-01  4.6845909228722926e-01  6.4805925879784620e-01  5.5037250898001178e-01  4.9390930366235858e-01  5.9334597342552209e-01  4.6156862175738883e-01  4.6325424525259112e-01  4.7960636202818085e-01  7.6265957815910901e-01  7.7244369327795148e-01  6.2485348403000063e-01  6.1115292545936062e-01  6.4339052972556421e-01  4.3202434851596105e-01  6.0984067161894950e-01  5.4376842940238745e-01  4.2782471854413923e-01  8.7685989062427394e-01  6.5009700709875817e-01  8.1608187938962451e-01  7.7031726362849229e-01  7.5643615727745339e-01  6.2731164170597609e-01  5.7185384012205176e-01  4.7596655080974154e-01  6.5263634241616986e-01  4.2044379951299438e-01  4.4245015009430194e-01  6.2815303380203336e-01  4.4858549540569342e-01  5.7239883867415275e-01  8.7479940772212006e-01  8.4855962549549768e-01  8.1717142870152004e-01  5.5747859989067694e-01  5.7293598035097537e-01  8.1155429150215019e-01  7.0387459691576426e-01  7.1260214332890293e-01  4.0199838266675547e-01  4.6297845136216947e-01  8.2665879639374218e-01  4.1384314951202156e-01  8.7909578937034349e-01  6.7183425941151953e-01  8.4399245946372248e-01  4.7262717848231411e-01  6.2229378218791287e-01  4.8424533776358819e-01  4.2484082118639604e-01  3.9296500584595978e-01  7.3169469165080625e-01  5.0072479896740574e-01  4.3650733960025656e-01  6.7420781132233976e-01  5.4005616328010642e-01  4.8606627554204218e-01  4.9239173656016955e-01  3.8167397932991948e-01  8.0429913067945091e-01  8.7920300494829873e-01  8.2410422289455276e-01  5.2300111577251607e-01  8.7692914758592955e-01  4.3340184385266878e-01  4.4350089488983740e-01  5.1715467247742741e-01  8.2047722797585576e-01  7.4175950044568284e-01  7.5292088740149554e-01  7.7570912431767280e-01  6.1592172703326420e-01  8.1781474785363573e-01  7.5510031781853493e-01  5.7756000805730923e-01  6.4729753342117191e-01  7.3944821530034499e-01  4.1991625864644311e-01  5.9692120907611290e-01  5.3891303278409453e-01  3.8281038169919074e-01  4.3622951407666605e-01  7.5610044395528386e-01  5.9496657956203292e-01  3.9767594355500008e-01  4.2262743060915459e-01  7.3084421070205219e-01  4.0882725511166534e-01  4.9283089029592542e-01  8.1351032995291161e-01  5.8831212930565058e-01  5.1627694241752620e-01  7.1816245140382162e-01  6.5262431676996036e-01  5.6414014335059115e-01  6.2797373907089993e-01  7.2500515587478742e-01  5.8305489609907490e-01  3.9129345875511817e-01  5.0959680284753173e-01  6.9137281608091605e-01  8.6010338923934371e-01  7.5997994624515464e-01  5.8298374809651632e-01  6.4059875846418768e-01  8.6840486686593166e-01  8.0948125268410931e-01  8.3692291367968652e-01  4.0529291968863634e-01  6.9910395887077925e-01  6.7185520810572996e-01  8.4482881601971427e-01  4.7036047748550053e-01  3.9700059010052208e-01  7.7083759173098731e-01  6.2954853667145394e-01  4.9510703473109463e-01  6.0704187467737003e-01  5.3916505032415496e-01  5.3121643257683893e-01  4.0353247610710985e-01  8.7574544071530536e-01  4.3937475565199058e-01  8.2696558175988555e-01  5.2966112028571311e-01  6.1009785431424590e-01  7.8308483684748431e-01  6.8551938609474761e-01  7.7860703498246764e-01  4.0151803002795133e-01  5.8409506947053891e-01  7.5251915115891199e-01  5.5149280998884287e-01  6.9278003852300440e-01  5.1797235046549472e-01  8.5195197209359130e-01  3.8685660269809147e-01  6.9771370532632560e-01  4.3844661007079871e-01  5.8242914694618908e-01  5.8351132721143362e-01  4.3702167132528791e-01  7.4498146215426919e-01  7.4989136964124470e-01  6.7648695548146143e-01  4.1373538296287976e-01  6.0629940756757894e-01  4.0658927086576702e-01  4.7362480894546216e-01  7.8403176921578743e-01  3.9814289976523354e-01  5.6216115752243478e-01  7.7710121296522272e-01  7.5587523708234894e-01  4.6208631065626199e-01  5.7240658654627374e-01  5.6151164313881363e-01  6.7577298670815711e-01  6.2082377255808696e-01  4.0617907112030299e-01  7.5532254792810172e-01  7.5306549757197705e-01  6.5397029201136847e-01  8.2098776441544197e-01  5.2034855883254882e-01  5.1104205548654735e-01  8.2697756933851196e-01  6.6949341887026459e-01  8.1366082016044994e-01  4.2775775854868958e-01  4.1043806423703638e-01  4.7260729353092568e-01  6.7084938840005259e-01  5.3558499431124851e-01  6.0140521021426552e-01  6.6328784147631925e-01  4.4513091816605410e-01  6.8579352507712255e-01  7.3224787835929850e-01  6.7257490284934729e-01  3.8455757854556860e-01  4.7040170389480113e-01  6.3651046701118741e-01  4.9850288625081235e-01  5.6855238574897760e-01  8.1546323716739377e-01  4.8795702818025100e-01  6.1029872689893783e-01  8.6608984702336689e-01  6.5095316008230131e-01  3.8490110949971473e-01  4.4983032471870193e-01  5.6786143939111544e-01  7.3379625489666367e-01  4.2869482144339977e-01  7.4710556714712562e-01  6.0867384506081423e-01  4.4950410880624347e-01  4.0397620000005607e-01  5.7547648510510341e-01  6.8055739063604215e-01  6.1644019742364398e-01  4.2067179248230385e-01  8.7949395176974043e-01  4.7327259898837631e-01  8.1119636112063831e-01  7.0093959960403152e-01  8.0093599254281855e-01  8.1444856430811452e-01  7.1769512402780999e-01  5.2251399749807859e-01  5.0786447391107359e-01  5.0718057485861467e-01  5.7922437180373487e-01  4.8908143792194492e-01  8.3086292904214432e-01  4.0574124160180897e-01  5.9422857813089458e-01  3.8623989140949111e-01  5.4767565899279858e-01  8.4927397737582333e-01  6.6292926288400700e-01  8.3325976027635074e-01  5.2072072211120801e-01  4.4155451212136609e-01  4.4136545001472227e-01  5.6635546971908890e-01  3.8177528039621728e-01  4.2335859479697707e-01  4.0459605521743935e-01  5.1821010188427696e-01  5.0725449575612003e-01  6.3038319788557573e-01  7.1804971888067226e-01  8.5035094819153134e-01  5.4980828991166497e-01  6.8049082212837997e-01  5.1539785732791321e-01  8.7427604869089481e-01  6.3529549499658111e-01  6.1685237498776990e-01  4.5908859649847328e-01  8.5146121635328653e-01  7.1939418109310904e-01  6.5934956648491394e-01  4.2264427042362784e-01  5.6970843353138412e-01  6.1541517945062207e-01  5.4186957623559318e-01  4.2511406892705500e-01  6.3941567949398159e-01  4.6021227174298091e-01  7.7351470768508668e-01  7.5417988720973295e-01  6.9637316523895443e-01  5.0966520283342487e-01  4.4770038093145120e-01  6.6297419236950295e-01  5.4855122784335286e-01  5.3968576876727603e-01  5.2916338546913377e-01  4.5829734692126173e-01  6.8202125369888189e-01  5.5885757540926895e-01  8.5880816024547257e-01  7.0162546962922345e-01  8.6399134771063457e-01  7.7046229670976385e-01  4.4890517320019580e-01  5.8032894846946159e-01  5.1247782641259487e-01  8.1689449074000220e-01  7.9926005691852919e-01  4.9011282356261265e-01  3.8117935073803505e-01  8.7936348385060836e-01  5.8692938172870157e-01  7.5328643800016248e-01  8.6659309806834850e-01  8.1374846443404314e-01  7.3531095460307438e-01  7.7605111672141602e-01  8.3389532196654637e-01  6.4705050954540755e-01  5.7329702657779058e-01  4.3273694435080967e-01  8.5239648993838057e-01  7.0810272452022849e-01  5.7515106993131204e-01  8.4202024897592520e-01  5.5505558113557640e-01  4.5785732659505535e-01  4.1556074850937752e-01  5.0655267714693542e-01  5.0248105082583572e-01  8.6673329093336249e-01  4.9197708416063440e-01  5.1680008311890602e-01  7.5122154874383118e-01  5.6572992551110501e-01  4.4974402961272653e-01  6.8063093323006674e-01  8.4608851424922005e-01  5.9966919561654097e-01  6.2417038020675042e-01  7.2371629193764553e-01  6.7923639255982560e-01  6.5689491312103487e-01  6.2668406668856902e-01  4.5223218679742355e-01  8.0986040933904113e-01  4.7851090622724329e-01  8.5854557744108229e-01  6.3961075170702963e-01  5.0074230686238352e-01  3.8602428877956690e-01  6.6107474280207623e-01  6.9387441248429338e-01  8.0250570356579098e-01  8.2652855197388697e-01  5.9947962383122844e-01  4.4229456774864290e-01  8.0801779680476060e-01  7.1834744545334006e-01  4.3874891180812403e-01  8.6791358384311801e-01  7.4582230226262580e-01  8.1965756363509679e-01  5.1979044393783380e-01  3.8122773367058632e-01  5.7402403795043599e-01  3.8643617496093913e-01  7.9702501497561662e-01  7.5774589752688470e-01  4.7910101563051261e-01  5.4311779249328263e-01  8.4253249054176615e-01  8.1114136147598637e-01  6.6831031686247910e-01  8.1484199479499919e-01  8.0677023645782631e-01  6.4108197381979237e-01  7.1440158504474138e-01  5.4902565094334888e-01  6.8548727330055570e-01  6.4751583797949130e-01  4.9268524470590253e-01  5.2006783226358455e-01  8.4534890973407073e-01  4.5640545166812380e-01  4.5540681376527747e-01  6.1996926954506781e-01  5.6051104179407507e-01  4.2614004068913169e-01  8.7841736887729838e-01  8.5569039958027737e-01  8.4728724095783958e-01  3.9819105422463208e-01  8.1916142651119506e-01  4.1855199403863930e-01  7.8860144998751780e-01  8.6827115073490457e-01  6.5727545357983486e-01  3.9124894535321242e-01  5.0742638663239492e-01  4.8238048226802877e-01  4.0200802320078699e-01  7.2723322185972417e-01  4.6869903049389317e-01  6.8565799001254535e-01  8.5636726894534188e-01  4.2120645292967629e-01  4.5457142274495216e-01  6.3319283531113846e-01  7.9190211200612881e-01  7.2440991166841828e-01  8.7677032301562330e-01  5.4248303049228752e-01  7.7430198023380048e-01  3.8458301724857868e-01  8.3298989142337343e-01  6.5370976966060734e-01  7.4829514756826199e-01  5.4773584265793640e-01  5.5443027825476676e-01  7.9575036626680851e-01  6.5087337869105766e-01  5.8205464365216475e-01  8.3034971489715659e-01  5.5203832461042612e-01  5.6220523134186284e-01  4.3762261647963457e-01  8.3988949250880307e-01  5.4842231866158853e-01  4.5275969458712795e-01  6.1862319467311111e-01  5.0329790104315641e-01  6.4902855915059909e-01  5.4592486433323240e-01  7.0511178472293290e-01  8.3387402082463424e-01  8.2855939131015544e-01  5.4994931627103416e-01  3.9759210584203497e-01  5.3006265939765140e-01  4.3903751678417458e-01  8.0004680277142715e-01  6.5530248995113483e-01  6.9566839467488362e-01  7.0945532538332567e-01  6.9614012451779161e-01  4.2765236644763571e-01  7.0195003890103957e-01  6.4929171521083362e-01  3.9341666309000545e-01  4.0780745384981049e-01  5.3578674054194619e-01  7.7244183550745560e-01  6.7675526645074302e-01  7.4907469324749532e-01  7.2981788784075841e-01  5.2254942231210488e-01  5.7783392994868099e-01  5.0798290803473678e-01  5.9765542385126347e-01  5.7686544309818721e-01  7.3467248788053630e-01  3.9175803892828526e-01  4.8967303125091499e-01  5.9919373232662465e-01  4.7551547584098902e-01  7.0141847698834558e-01  8.1132866960438665e-01  4.7724492526447493e-01  4.9463576838086365e-01  8.1575868548116870e-01  5.3046686365709750e-01  8.5359081559526362e-01  8.6494268461641699e-01  6.0008934762339150e-01  7.9543832868932340e-01  4.5371085665434618e-01  4.3135464887136377e-01  6.5908701384211121e-01  5.8227766460919927e-01  6.7683288910662587e-01  6.5418999445508352e-01  6.6586046875693605e-01  8.7789988193926027e-01  6.0372187513646924e-01  6.1094514372834019e-01  6.0808514374001144e-01  7.1999877259488543e-01  6.8631911126519263e-01  4.6929477470819153e-01  5.0631010773851548e-01  7.4819383569781484e-01  4.8624784404220917e-01  7.7738625571434872e-01  7.3078134279454654e-01  8.3154469716448765e-01  6.6371829439648145e-01  4.1948792339111440e-01  8.1255697053246800e-01  8.4297247567873068e-01  6.3467658717977771e-01  7.7099381270056866e-01  8.7561863432586029e-01  3.9160074544030893e-01  4.1834227506094335e-01  4.9816318321338648e-01  8.2842848940887182e-01  4.3771136529896221e-01  8.1337925177348125e-01  7.1398669127041847e-01  4.7173870751965397e-01  4.0403146244678578e-01  8.1746767057194236e-01  8.7409812707744328e-01  7.8574603386402098e-01  7.3246274754729768e-01  7.2745959482544098e-01  7.2751031150563850e-01  6.4844755258302089e-01  4.1771765883516637e-01  6.9564470037305237e-01  3.8831447156801552e-01  5.3881579684914249e-01  6.2086729432489118e-01  3.9537139270389499e-01  4.4087439569388287e-01  4.3326125705912710e-01  6.2219272209613363e-01  7.4406462882328461e-01  7.5931392438071554e-01  5.0029297288429253e-01  4.6690728281758637e-01  7.9469006696175959e-01  6.1175927033510802e-01  8.4881573718799541e-01  7.1033017764004969e-01  5.7028074841638432e-01  4.3228460061890200e-01  5.3757177032733960e-01  6.7273223378659242e-01  6.5418826690545562e-01  4.7973358704594521e-01  4.3574336197926716e-01  5.8359350360051665e-01  4.4930567516275571e-01  4.9069455322396549e-01  6.2623088964231965e-01  4.1697624113326442e-01  6.4745475825815380e-01  5.2480124846422105e-01  4.4097069100263092e-01  6.1447247909085845e-01  7.1860575173681340e-01  5.0336356699977192e-01  6.6251898681330879e-01  5.0406366891222243e-01  5.7924270947583523e-01  7.5637117729425807e-01  5.0914818832825537e-01  7.5673300546842781e-01  7.4270999040777541e-01  7.2136101197887736e-01  7.0791549152511213e-01  7.5695924083331256e-01  4.8749346961423756e-01  5.5522492844736604e-01  5.0515724820394969e-01  7.3356338576868441e-01  7.9799179315928304e-01  5.8274154476149076e-01  4.8428792852416991e-01  7.5254719162533101e-01  8.4063715445531706e-01  8.5987009566094375e-01  4.6234613705202382e-01  7.8657096963542594e-01  8.7524397457830405e-01  5.0446054522929873e-01  4.8669486844382231e-01  6.9442313606449302e-01  3.9357920848398426e-01  7.3576653001977821e-01  4.7810193360675307e-01  7.8834102833335307e-01  6.6521030230379241e-01  7.4069635162619041e-01  5.0023821342455843e-01  4.5553129675866544e-01  4.6259260093564114e-01  7.9037806984539660e-01  7.9333770451590957e-01  6.5726932197650045e-01  5.1699396919085383e-01  5.7157771363257814e-01  7.1919431247362353e-01  6.9971293331042483e-01  8.4229355095795355e-01  4.0499126847162348e-01  6.6394521701169640e-01  4.4343807222045845e-01  6.6486458841015406e-01  5.2649494898171390e-01  6.3230122739017558e-01  6.9301597704136952e-01  4.8785224467436522e-01  5.3911712319315996e-01  5.0802419817560407e-01  4.3555759801157762e-01  8.3871613067398099e-01  7.8545369341726645e-01  4.6425471377230798e-01  5.9949969140136838e-01  6.7222144241594339e-01  6.7803444922319356e-01  8.1756603267162586e-01  5.2375468625431609e-01  4.0590614080733289e-01  3.9604568815872454e-01  3.8422025561788115e-01  5.4353746021686522e-01  4.9722006531943641e-01  6.4430519671027042e-01  3.9546963290541903e-01  5.0985994260517886e-01  6.0586497329225120e-01  5.7471241772107295e-01  4.8149485654255625e-01  3.8614370950232063e-01  8.6472204876164882e-01  8.5317762478843773e-01  5.1329929510095296e-01  5.6330335892059602e-01  7.5776210940399169e-01  7.4305738032955349e-01  7.9598032959390386e-01  5.3884256830045651e-01  7.7799108657558713e-01  5.4093585957302615e-01  7.9551969287608570e-01  7.8670725916433670e-01  8.2282407164250304e-01  4.0717876453353247e-01  8.2971464122838401e-01  5.8246094380613633e-01  5.2227165147234889e-01  3.9478067303913661e-01  5.3335093212539442e-01  6.0141502395697821e-01  7.3787761014016495e-01  6.1572909868303505e-01  3.8027275859927451e-01  7.6702909379993334e-01  6.6086602377644488e-01  7.9976576777358788e-01  7.6342100204275720e-01  6.2233718810561434e-01  6.6564828970957546e-01  8.4929951904903833e-01  7.5949178518268723e-01  4.8869520149923296e-01  8.4150744165954783e-01  5.2751938296511458e-01  7.7779384157913101e-01  6.9942044649847479e-01  4.4397555384702458e-01  3.8830479187159811e-01  5.0150839152794391e-01  6.2136715367119899e-01  3.9629020283412741e-01  3.8708307464163799e-01  4.8627588946198985e-01  6.2462616930920356e-01  4.9610598423095525e-01  5.9668647863474544e-01  5.3976253266627661e-01  5.4475015749080402e-01  8.6694060978720144e-01  8.6907851073530207e-01  6.9663525911723490e-01  5.9426898324550814e-01  4.6329896671737203e-01  7.6947627188740220e-01  8.0186626896936186e-01  6.3247561207179159e-01  5.0316475314726328e-01  5.4578346023011615e-01  7.3708255299900594e-01  6.7475861188226893e-01  7.2853843883395941e-01  4.3569598041315549e-01  6.8056207898748544e-01  8.3271737684550251e-01  5.6527036238161232e-01  6.8513862050286800e-01  5.3019389946672935e-01  8.4021909123182548e-01  8.3842971334543837e-01  3.9991324536770162e-01  6.9107925219677435e-01  7.3798685565925681e-01  5.4796304850342581e-01  4.9868567315125001e-01  6.5552096822974926e-01  8.2502971277536752e-01  4.4134848227703272e-01  8.2712623645258709e-01  8.4579099673933178e-01  4.9367263514013116e-01  5.8674777278661594e-01  7.2790893292547043e-01  4.7988421169347639e-01  3.8158272295433759e-01  5.0607870930197429e-01  5.8786820658713301e-01  8.1099301412407521e-01  7.9308165997517033e-01  7.1497458066882902e-01  7.0411078616610956e-01  8.4240787185821608e-01  7.9383471923935645e-01  3.8877193642316665e-01  7.9826814163024562e-01  7.0217809681643284e-01  6.2536594884072572e-01  5.8811049443630337e-01  5.8588360743515544e-01  7.2077940301389021e-01  4.2586374008282291e-01  6.2349690520217438e-01  4.4198700923361106e-01  4.3263897130836498e-01  5.9341422559277368e-01  7.5874621893134098e-01  6.6108022883278095e-01  8.0274856062519429e-01  5.3608525130870510e-01  7.1700261377312791e-01  5.4137004863751126e-01  8.0961153996223123e-01  8.7062946932354845e-01  8.5408133854218959e-01  7.4756426721254843e-01  5.6111545388810180e-01  6.3756417518975850e-01  7.7184230237163809e-01  6.8341425844605375e-01  5.3681969092986803e-01  6.4733295084546305e-01  8.6288073368508633e-01  8.7417304418682840e-01  5.7315875670177752e-01  4.7946875027342734e-01  5.6385865621784015e-01  7.3319180784022231e-01  4.1822139878800862e-01  5.2936967186754158e-01  6.8648900260268841e-01  6.2802757996993486e-01  4.7177573573053161e-01  3.9316062847932609e-01  4.5586790669515959e-01  8.4811422424213601e-01  3.9209160294464007e-01  7.7823103627799628e-01  5.1088821983342503e-01  6.1695174119734442e-01  7.6854416344348409e-01  5.9882605747924256e-01  6.6434912554268055e-01  4.9192208559675238e-01  6.2991797860138643e-01  6.9515162929532448e-01  3.8980806387382771e-01  4.6388438079360361e-01  8.4693563046759834e-01  8.2928359497422344e-01  5.6561686641066322e-01  6.5382640834781069e-01  5.3647246813603400e-01  4.0752174680601477e-01  5.1918500562439984e-01  5.6143253943482918e-01  6.3003917388783215e-01  5.7180987256525106e-01  7.7362990477987514e-01  8.2717700614633993e-01  7.7914316616827373e-01  5.8585738291090617e-01  6.7519938217920794e-01  7.8577735220514278e-01  4.9059298555827163e-01  4.6509926774313221e-01  7.4273693184615541e-01  5.8292580161892582e-01  4.7916254766674565e-01  7.0795044813980290e-01  8.4686471468222013e-01  5.5964917040090167e-01  7.7793013636127106e-01  5.5102813827476482e-01  6.6852740347934714e-01  3.9543605134898407e-01  6.1612412252732141e-01  8.4195595897362607e-01  7.8972934446650078e-01  6.9542179228868983e-01  5.1010255604306054e-01  5.3851900476733938e-01  5.6726230024319046e-01  4.1545702485204311e-01  5.9440805783295025e-01  7.7311971580553274e-01  4.2391994490745027e-01  8.2023630453972773e-01  7.3921638993323913e-01  5.909588815226467