<?xml version="1.0"?>
<VTKFile type="UnstructuredGrid"  version="0.1"  >
<UnstructuredGrid>
<Piece  NumberOfPoints="4225" NumberOfCells="8192">
<Points>
<DataArray  type="Float64"  NumberOfComponents="3"  format="ascii">0 0 0  0.015625 0 0  0.03125 0 0  0.046875 0 0  0.0625 0 0  0.078125 0 0  0.09375 0 0  0.109375 0 0  0.125 0 0  0.140625 0 0  0.15625 0 0  0.171875 0 0  0.1875 0 0  0.203125 0 0  0.21875 0 0  0.234375 0 0  0.25 0 0  0.265625 0 0  0.28125 0 0  0.296875 0 0  0.3125 0 0  0.328125 0 0  0.34375 0 0  0.359375 0 0  0.375 0 0  0.390625 0 0  0.40625 0 0  0.421875 0 0  0.4375 0 0  0.453125 0 0  0.46875 0 0  0.484375 0 0  0.5 0 0  0.515625 0 0  0.53125 0 0  0.546875 0 0  0.5625 0 0  0.578125 0 0  0.59375 0 0  0.609375 0 0  0.625 0 0  0.640625 0 0  0.65625 0 0  0.671875 0 0  0.6875 0 0  0.703125 0 0  0.71875 0 0  0.734375 0 0  0.75 0 0  0.765625 0 0  0.78125 0 0  0.796875 0 0  0.8125 0 0  0.828125 0 0  0.84375 0 0  0.859375 0 0  0.875 0 0  0.890625 0 0  0.90625 0 0  0.921875 0 0  0.9375 0 0  0.953125 0 0  0.96875 0 0  0.984375 0 0  1 0 0  0 0.015625 0  0.015625 0.015625 0  0.03125 0.015625 0  0.046875 0.015625 0  0.0625 0.015625 0  0.078125 0.015625 0  0.09375 0.015625 0  0.109375 0.015625 0  0.125 0.015625 0  0.140625 0.015625 0  0.15625 0.015625 0  0.171875 0.015625 0  0.1875 0.015625 0  0.203125 0.015625 0  0.21875 0.015625 0  0.234375 0.015625 0  0.25 0.015625 0  0.265625 0.015625 0  0.28125 0.015625 0  0.296875 0.015625 0  0.3125 0.015625 0  0.328125 0.015625 0  0.34375 0.015625 0  0.359375 0.015625 0  0.375 0.015625 0  0.390625 0.015625 0  0.40625 0.015625 0  0.421875 0.015625 0  0.4375 0.015625 0  0.453125 0.015625 0  0.46875 0.015625 0  0.484375 0.015625 0  0.5 0.015625 0  0.515625 0.015625 0  0.53125 0.015625 0  0.546875 0.015625 0  0.5625 0.015625 0  0.578125 0.015625 0  0.59375 0.015625 0  0.609375 0.015625 0  0.625 0.015625 0  0.640625 0.015625 0  0.65625 0.015625 0  0.671875 0.015625 0  0.6875 0.015625 0  0.703125 0.015625 0  0.71875 0.015625 0  0.734375 0.015625 0  0.75 0.015625 0  0.765625 0.015625 0  0.78125 0.015625 0  0.796875 0.015625 0  0.8125 0.015625 0  0.828125 0.015625 0  0.84375 0.015625 0  0.859375 0.015625 0  0.875 0.015625 0  0.890625 0.015625 0  0.90625 0.015625 0  0.921875 0.015625 0  0.9375 0.015625 0  0.953125 0.015625 0  0.96875 0.015625 0  0.984375 0.015625 0  1 0.015625 0  0 0.03125 0  0.015625 0.03125 0  0.03125 0.03125 0  0.046875 0.03125 0  0.0625 0.03125 0  0.078125 0.03125 0  0.09375 0.03125 0  0.109375 0.03125 0  0.125 0.03125 0  0.140625 0.03125 0  0.15625 0.03125 0  0.171875 0.03125 0  0.1875 0.03125 0  0.203125 0.03125 0  0.21875 0.03125 0  0.234375 0.03125 0  0.25 0.03125 0  0.265625 0.03125 0  0.28125 0.03125 0  0.296875 0.03125 0  0.3125 0.03125 0  0.328125 0.03125 0  0.34375 0.03125 0  0.359375 0.03125 0  0.375 0.03125 0  0.390625 0.03125 0  0.40625 0.03125 0  0.421875 0.03125 0  0.4375 0.03125 0  0.453125 0.03125 0  0.46875 0.03125 0  0.484375 0.03125 0  0.5 0.03125 0  0.515625 0.03125 0  0.53125 0.03125 0  0.546875 0.03125 0  0.5625 0.03125 0  0.578125 0.03125 0  0.59375 0.03125 0  0.609375 0.03125 0  0.625 0.03125 0  0.640625 0.03125 0  0.65625 0.03125 0  0.671875 0.03125 0  0.6875 0.03125 0  0.703125 0.03125 0  0.71875 0.03125 0  0.734375 0.03125 0  0.75 0.03125 0  0.765625 0.03125 0  0.78125 0.03125 0  0.796875 0.03125 0  0.8125 0.03125 0  0.828125 0.03125 0  0.84375 0.03125 0  0.859375 0.03125 0  0.875 0.03125 0  0.890625 0.03125 0  0.90625 0.03125 0  0.921875 0.03125 0  0.9375 0.03125 0  0.953125 0.03125 0  0.96875 0.03125 0  0.984375 0.03125 0  1 0.03125 0  0 0.046875 0  0.015625 0.046875 0  0.03125 0.046875 0  0.046875 0.046875 0  0.0625 0.046875 0  0.078125 0.046875 0  0.09375 0.046875 0  0.109375 0.046875 0  0.125 0.046875 0  0.140625 0.046875 0  0.15625 0.046875 0  0.171875 0.046875 0  0.1875 0.046875 0  0.203125 0.046875 0  0.21875 0.046875 0  0.234375 0.046875 0  0.25 0.046875 0  0.265625 0.046875 0  0.28125 0.046875 0  0.296875 0.046875 0  0.3125 0.046875 0  0.328125 0.046875 0  0.34375 0.046875 0  0.359375 0.046875 0  0.375 0.046875 0  0.390625 0.046875 0  0.40625 0.046875 0  0.421875 0.046875 0  0.4375 0.046875 0  0.453125 0.046875 0  0.46875 0.046875 0  0.484375 0.046875 0  0.5 0.046875 0  0.515625 0.046875 0  0.53125 0.046875 0  0.546875 0.046875 0  0.5625 0.046875 0  0.578125 0.046875 0  0.59375 0.046875 0  0.609375 0.046875 0  0.625 0.046875 0  0.640625 0.046875 0  0.65625 0.046875 0  0.671875 0.046875 0  0.6875 0.046875 0  0.703125 0.046875 0  0.71875 0.046875 0  0.734375 0.046875 0  0.75 0.046875 0  0.765625 0.046875 0  0.78125 0.046875 0  0.796875 0.046875 0  0.8125 0.046875 0  0.828125 0.046875 0  0.84375 0.046875 0  0.859375 0.046875 0  0.875 0.046875 0  0.890625 0.046875 0  0.90625 0.046875 0  0.921875 0.046875 0  0.9375 0.046875 0  0.953125 0.046875 0  0.96875 0.046875 0  0.984375 0.046875 0  1 0.046875 0  0 0.0625 0  0.015625 0.0625 0  0.03125 0.0625 0  0.046875 0.0625 0  0.0625 0.0625 0  0.078125 0.0625 0  0.09375 0.0625 0  0.109375 0.0625 0  0.125 0.0625 0  0.140625 0.0625 0  0.15625 0.0625 0  0.171875 0.0625 0  0.1875 0.0625 0  0.203125 0.0625 0  0.21875 0.0625 0  0.234375 0.0625 0  0.25 0.0625 0  0.265625 0.0625 0  0.28125 0.0625 0  0.296875 0.0625 0  0.3125 0.0625 0  0.328125 0.0625 0  0.34375 0.0625 0  0.359375 0.0625 0  0.375 0.0625 0  0.390625 0.0625 0  0.40625 0.0625 0  0.421875 0.0625 0  0.4375 0.0625 0  0.453125 0.0625 0  0.46875 0.0625 0  0.484375 0.0625 0  0.5 0.0625 0  0.515625 0.0625 0  0.53125 0.0625 0  0.546875 0.0625 0  0.5625 0.0625 0  0.578125 0.0625 0  0.59375 0.0625 0  0.609375 0.0625 0  0.625 0.0625 0  0.640625 0.0625 0  0.65625 0.0625 0  0.671875 0.0625 0  0.6875 0.0625 0  0.703125 0.0625 0  0.71875 0.0625 0  0.734375 0.0625 0  0.75 0.0625 0  0.765625 0.0625 0  0.78125 0.0625 0  0.796875 0.0625 0  0.8125 0.0625 0  0.828125 0.0625 0  0.84375 0.0625 0  0.859375 0.0625 0  0.875 0.0625 0  0.890625 0.0625 0  0.90625 0.0625 0  0.921875 0.0625 0  0.9375 0.0625 0  0.953125 0.0625 0  0.96875 0.0625 0  0.984375 0.0625 0  1 0.0625 0  0 0.078125 0  0.015625 0.078125 0  0.03125 0.078125 0  0.046875 0.078125 0  0.0625 0.078125 0  0.078125 0.078125 0  0.09375 0.078125 0  0.109375 0.078125 0  0.125 0.078125 0  0.140625 0.078125 0  0.15625 0.078125 0  0.171875 0.078125 0  0.1875 0.078125 0  0.203125 0.078125 0  0.21875 0.078125 0  0.234375 0.078125 0  0.25 0.078125 0  0.265625 0.078125 0  0.28125 0.078125 0  0.296875 0.078125 0  0.3125 0.078125 0  0.328125 0.078125 0  0.34375 0.078125 0  0.359375 0.078125 0  0.375 0.078125 0  0.390625 0.078125 0  0.40625 0.078125 0  0.421875 0.078125 0  0.4375 0.078125 0  0.453125 0.078125 0  0.46875 0.078125 0  0.484375 0.078125 0  0.5 0.078125 0  0.515625 0.078125 0  0.53125 0.078125 0  0.546875 0.078125 0  0.5625 0.078125 0  0.578125 0.078125 0  0.59375 0.078125 0  0.609375 0.078125 0  0.625 0.078125 0  0.640625 0.078125 0  0.65625 0.078125 0  0.671875 0.078125 0  0.6875 0.078125 0  0.703125 0.078125 0  0.71875 0.078125 0  0.734375 0.078125 0  0.75 0.078125 0  0.765625 0.078125 0  0.78125 0.078125 0  0.796875 0.078125 0  0.8125 0.078125 0  0.828125 0.078125 0  0.84375 0.078125 0  0.859375 0.078125 0  0.875 0.078125 0  0.890625 0.078125 0  0.90625 0.078125 0  0.921875 0.078125 0  0.9375 0.078125 0  0.953125 0.078125 0  0.96875 0.078125 0  0.984375 0.078125 0  1 0.078125 0  0 0.09375 0  0.015625 0.09375 0  0.03125 0.09375 0  0.046875 0.09375 0  0.0625 0.09375 0  0.078125 0.09375 0  0.09375 0.09375 0  0.109375 0.09375 0  0.125 0.09375 0  0.140625 0.09375 0  0.15625 0.09375 0  0.171875 0.09375 0  0.1875 0.09375 0  0.203125 0.09375 0  0.21875 0.09375 0  0.234375 0.09375 0  0.25 0.09375 0  0.265625 0.09375 0  0.28125 0.09375 0  0.296875 0.09375 0  0.3125 0.09375 0  0.328125 0.09375 0  0.34375 0.09375 0  0.359375 0.09375 0  0.375 0.09375 0  0.390625 0.09375 0  0.40625 0.09375 0  0.421875 0.09375 0  0.4375 0.09375 0  0.453125 0.09375 0  0.46875 0.09375 0  0.484375 0.09375 0  0.5 0.09375 0  0.515625 0.09375 0  0.53125 0.09375 0  0.546875 0.09375 0  0.5625 0.09375 0  0.578125 0.09375 0  0.59375 0.09375 0  0.609375 0.09375 0  0.625 0.09375 0  0.640625 0.09375 0  0.65625 0.09375 0  0.671875 0.09375 0  0.6875 0.09375 0  0.703125 0.09375 0  0.71875 0.09375 0  0.734375 0.09375 0  0.75 0.09375 0  0.765625 0.09375 0  0.78125 0.09375 0  0.796875 0.09375 0  0.8125 0.09375 0  0.828125 0.09375 0  0.84375 0.09375 0  0.859375 0.09375 0  0.875 0.09375 0  0.890625 0.09375 0  0.90625 0.09375 0  0.921875 0.09375 0  0.9375 0.09375 0  0.953125 0.09375 0  0.96875 0.09375 0  0.984375 0.09375 0  1 0.09375 0  0 0.109375 0  0.015625 0.109375 0  0.03125 0.109375 0  0.046875 0.109375 0  0.0625 0.109375 0  0.078125 0.109375 0  0.09375 0.109375 0  0.109375 0.109375 0  0.125 0.109375 0  0.140625 0.109375 0  0.15625 0.109375 0  0.171875 0.109375 0  0.1875 0.109375 0  0.203125 0.109375 0  0.21875 0.109375 0  0.234375 0.109375 0  0.25 0.109375 0  0.265625 0.109375 0  0.28125 0.109375 0  0.296875 0.109375 0  0.3125 0.109375 0  0.328125 0.109375 0  0.34375 0.109375 0  0.359375 0.109375 0  0.375 0.109375 0  0.390625 0.109375 0  0.40625 0.109375 0  0.421875 0.109375 0  0.4375 0.109375 0  0.453125 0.109375 0  0.46875 0.109375 0  0.484375 0.109375 0  0.5 0.109375 0  0.515625 0.109375 0  0.53125 0.109375 0  0.546875 0.109375 0  0.5625 0.109375 0  0.578125 0.109375 0  0.59375 0.109375 0  0.609375 0.109375 0  0.625 0.109375 0  0.640625 0.109375 0  0.65625 0.109375 0  0.671875 0.109375 0  0.6875 0.109375 0  0.703125 0.109375 0  0.71875 0.109375 0  0.734375 0.109375 0  0.75 0.109375 0  0.765625 0.109375 0  0.78125 0.109375 0  0.796875 0.109375 0  0.8125 0.109375 0  0.828125 0.109375 0  0.84375 0.109375 0  0.859375 0.109375 0  0.875 0.109375 0  0.890625 0.109375 0  0.90625 0.109375 0  0.921875 0.109375 0  0.9375 0.109375 0  0.953125 0.109375 0  0.96875 0.109375 0  0.984375 0.109375 0  1 0.109375 0  0 0.125 0  0.015625 0.125 0  0.03125 0.125 0  0.046875 0.125 0  0.0625 0.125 0  0.078125 0.125 0  0.09375 0.125 0  0.109375 0.125 0  0.125 0.12
[...]
<PointData  Scalars="f_12"> 
<DataArray  type="Float64"  Name="f_12"  format="ascii">6.3412230482064602e-01  6.3412427530702165e-01  6.3413014562801118e-01  6.3413978984332076e-01  6.3415299981282780e-01  6.3416948798050676e-01  6.3418889166531767e-01  6.3421077896957057e-01  6.3423465621122721e-01  6.3425997660063560e-01  6.3428614979463249e-01  6.3431255197131786e-01  6.3433853614712021e-01  6.3436344258980215e-01  6.3438660931499458e-01  6.3440738273093966e-01  6.3442512851619570e-01  6.3443924282049324e-01  6.3444916387588879e-01  6.3445438402408139e-01  6.3445446198672684e-01  6.3444903506855366e-01  6.3443783091524608e-01  6.3442067836787175e-01  6.3439751685616341e-01  6.3436840365719094e-01  6.3433351828148754e-01  6.3429316330444330e-01  6.3424776112895831e-01  6.3419784639663779e-01  6.3414405402457974e-01  6.3408710313227890e-01  6.3402777739040095e-01  6.3396690258213251e-01  6.3390532245273401e-01  6.3384387411418763e-01  6.3378336430598481e-01  6.3372454781375764e-01  6.3366810925416939e-01  6.3361464906162990e-01  6.3356467388733262e-01  6.3351859100604635e-01  6.3347670594304861e-01  6.3343922247010476e-01  6.3340624434383430e-01  6.3337777848889298e-01  6.3335373962904984e-01  6.3333395657697900e-01  6.3331818044037047e-01  6.3330609487502310e-01  6.3329732831990038e-01  6.3329146800111613e-01  6.3328807537236087e-01  6.3328670247814434e-01  6.3328690842575885e-01  6.3328827481380623e-01  6.3329041881488679e-01  6.3329300279677148e-01  6.3329573987275634e-01  6.3329839541003141e-01  6.3330078505293752e-01  6.3330277019453318e-01  6.3330425205358998e-01  6.3330516555115401e-01  6.3330547431197703e-01  6.3411564067370330e-01  6.3411761402572864e-01  6.3412349338303597e-01  6.3413315201841369e-01  6.3414638134587453e-01  6.3416289327537112e-01  6.3418232455771173e-01  6.3420424272652820e-01  6.3422815354344753e-01  6.3425350967504435e-01  6.3427972024211254e-01  6.3430616089260283e-01  6.3433218412730830e-01  6.3435712972849545e-01  6.3438033527543825e-01  6.3440114681598891e-01  6.3441892978079328e-01  6.3443308022480371e-01  6.3444303647229094e-01  6.3444829116006951e-01  6.3444840350273413e-01  6.3444301146848314e-01  6.3443184348593951e-01  6.3441472923036868e-01  6.3439160894577895e-01  6.3436254064285380e-01  6.3432770444256681e-01  6.3428740338510314e-01  6.3424206018793894e-01  6.3419220966739576e-01  6.3413848679938678e-01  6.3408161068331459e-01  6.3402236494024700e-01  6.3396157533126052e-01  6.3390008565852107e-01  6.3383873320576911e-01  6.3377832501936204e-01  6.3371961632984486e-01  6.3366329231715957e-01  6.3360995405087306e-01  6.3356010881781022e-01  6.3351416444073239e-01  6.3347242681278515e-01  6.3343509981047230e-01  6.3340228696895129e-01  6.3337399463232957e-01  6.3335013658997819e-01  6.3333054040472891e-01  6.3331495567333063e-01  6.3330306433547334e-01  6.3329449296214479e-01  6.3328882681034571e-01  6.3328562530865584e-01  6.3328443845474391e-01  6.3328482330967750e-01  6.3328635944177158e-01  6.3328866202500766e-01  6.3329139148357405e-01  6.3329425907309811e-01  6.3329702842283842e-01  6.3329951359698533e-01  6.3330157460963188e-01  6.3330311154524666e-01  6.3330405846765603e-01  6.3330437874831957e-01  6.3409568247789905e-01  6.3409766403355339e-01  6.3410356926303146e-01  6.3411327003171680e-01  6.3412655643674087e-01  6.3414313880827633e-01  6.3416265220870027e-01  6.3418466247154359e-01  6.3420867368579281e-01  6.3423413687570052e-01  6.3426045953999244e-01  6.3428701572479895e-01  6.3431315637712604e-01  6.3433821982209626e-01  6.3436154233876285e-01  6.3438246891323269e-01  6.3440036425986013e-01  6.3441462417833183e-01  6.3442468729254786e-01  6.3443004713646989e-01  6.3443026440030048e-01  6.3442497902120765e-01  6.3441392173700550e-01  6.3439692467138387e-01  6.3437393044544599e-01  6.3434499919491560e-01  6.3431031278923888e-01  6.3427017557730414e-01  6.3422501113521967e-01  6.3417535472298647e-01  6.3412184142400718e-01  6.3406519022796548e-01  6.3400618458261626e-01  6.3394565018194626e-01  6.3388443101705061e-01  6.3382336492056368e-01  6.3376325990477744e-01  6.3370487258698405e-01  6.3364888988704726e-01  6.3359591481836597e-01  6.3354645659520026e-01  6.3350092468712094e-01  6.3345962608110207e-01  6.3342276495408034e-01  6.3339044417177259e-01  6.3336266835264343e-01  6.3333934852470686e-01  6.3332030856487953e-01  6.3330529361539623e-01  6.3329398055435437e-01  6.3328599043782852e-01  6.3328090269933501e-01  6.3327827076219945e-01  6.3327763853174435e-01  6.3327855695138302e-01  6.3328059949260407e-01  6.3328337530779510e-01  6.3328653895467180e-01  6.3328979607925195e-01  6.3329290506899449e-01  6.3329567523607133e-01  6.3329796246668746e-01  6.3329966347464839e-01  6.3330070982285214e-01  6.3330106400048547e-01  6.3406253652930644e-01  6.3406453221144610e-01  6.3407048094186047e-01  6.3408025257959333e-01  6.3409363502587690e-01  6.3411033595810762e-01  6.3412998757935968e-01  6.3415215282406656e-01  6.3417633291880271e-01  6.3420197607585516e-01  6.3422848702470846e-01  6.3425523709415443e-01  6.3428157461239498e-01  6.3430683546453881e-01  6.3433035377342051e-01  6.3435147278932658e-01  6.3436955608037415e-01  6.3438399906599863e-01  6.3439424089751029e-01  6.3439977660983737e-01  6.3440016933438226e-01  6.3439506224680586e-01  6.3438418987142653e-01  6.3436738834580242e-01  6.3434460419588368e-01  6.3431590105984315e-01  6.3428146370079119e-01  6.3424159864453700e-01  6.3419673090549145e-01  6.3414739649893470e-01  6.3409423071423221e-01  6.3403795240131355e-01  6.3397934477498696e-01  6.3391923346915680e-01  6.3385846281899505e-01  6.3379787156835743e-01  6.3373826929712596e-01  6.3368041485265603e-01  6.3362499794104998e-01  6.3357262467929143e-01  6.3352380734657598e-01  6.3347895801055365e-01  6.3343838534955332e-01  6.3340229393914482e-01  6.3337078547424119e-01  6.3334386170495605e-01  6.3332142912841327e-01  6.3330330560025416e-01  6.3328922899719642e-01  6.3327886794746535e-01  6.3327183451984170e-01  6.3326769865102217e-01  6.3326600395696286e-01  6.3326628437731725e-01  6.3326808083359287e-01  6.3327095679619694e-01  6.3327451152728320e-01  6.3327838993316532e-01  6.3328228841208900e-01  6.3328595669531829e-01  6.3328919623919655e-01  6.3329185610109329e-01  6.3329382741834661e-01  6.3329503762999784e-01  6.3329544726128595e-01  6.3401638257943360e-01  6.3401839848541652e-01  6.3402440889432776e-01  6.3403428105683357e-01  6.3404779979290793e-01  6.3406466901842529e-01  6.3408451683815481e-01  6.3410690199732966e-01  6.3413132157016605e-01  6.3415721969019767e-01  6.3418399708629658e-01  6.3421102119086670e-01  6.3423763660948906e-01  6.3426317579243696e-01  6.3428696986815380e-01  6.3430835972217081e-01  6.3432670740639452e-01  6.3434140789165394e-01  6.3435190112052220e-01  6.3435768423834582e-01  6.3435832375642476e-01  6.3435346730138920e-01  6.3434285458157080e-01  6.3432632722339799e-01  6.3430383710125238e-01  6.3427545267136454e-01  6.3424136270160436e-01  6.3420187675249984e-01  6.3415742186562085e-01  6.3410853515117671e-01  6.3405585225033412e-01  6.3400009190842976e-01  6.3394203712036012e-01  6.3388251352626745e-01  6.3382236598700614e-01  6.3376243450286818e-01  6.3370353075676533e-01  6.3364641655301734e-01  6.3359178527065607e-01  6.3354024709951151e-01  6.3349231831287600e-01  6.3344841431718169e-01  6.3340884589042767e-01  6.3337381796627568e-01  6.3334343050490705e-01  6.3331768127190358e-01  6.3329647057496685e-01  6.3327960809114492e-01  6.3326682184582217e-01  6.3325776928718591e-01  6.3325205030591625e-01  6.3324922196176836e-01  6.3324881455094073e-01  6.3325034844924566e-01  6.3325335090853008e-01  6.3325737173043195e-01  6.3326199663075600e-01  6.3326685726157461e-01  6.3327163728528946e-01  6.3327607448579359e-01  6.3327995946132942e-01  6.3328313182003104e-01  6.3328547497332133e-01  6.3328691063362441e-01  6.3328739629096542e-01  6.3395747739356145e-01  6.3395951984508081e-01  6.3396561080133562e-01  6.3397561429821270e-01  6.3398931117226398e-01  6.3400640041962497e-01  6.3402650472222777e-01  6.3404917723330223e-01  6.3407390946058606e-01  6.3410014007424387e-01  6.3412726447243439e-01  6.3415464493814688e-01  6.3418162120617483e-01  6.3420752128595659e-01  6.3423167249610346e-01  6.3425341278044201e-01  6.3427210237249154e-01  6.3428713579154472e-01  6.3429795408097556e-01  6.3430405711669113e-01  6.3430501569565700e-01  6.3430048303408271e-01  6.3429020531964675e-01  6.3427403102851365e-01  6.3425191871874054e-01  6.3422394289464934e-01  6.3419029738720489e-01  6.3415129563017547e-01  6.3410736729357764e-01  6.3405905096600856e-01  6.3400698285813162e-01  6.3395188173278849e-01  6.3389453045925626e-01  6.3383575480488052e-01  6.3377640034986915e-01  6.3371730865664999e-01  6.3365929395143239e-01  6.3360312156913112e-01  6.3354948924012910e-01  6.3349901194566771e-01  6.3345221060941725e-01  6.3340950444811817e-01  6.3337120651352463e-01  6.3333752189377024e-01  6.3330854818841842e-01  6.3328427811191568e-01  6.3326460427713049e-01  6.3324932626084518e-01  6.3323815994404165e-01  6.3323074899514464e-01  6.3322667829298684e-01  6.3322548901562481e-01  6.3322669500773709e-01  6.3322979985314021e-01  6.3323431383511397e-01  6.3323976973998453e-01  6.3324573636815873e-01  6.3325182876388864e-01  6.3325771457729607e-01  6.3326311653191614e-01  6.3326781151516720e-01  6.3327162718770413e-01  6.3327443717734899e-01  6.3327615592832909e-01  6.3327673684479546e-01  6.3388615929295311e-01  6.3388823485161083e-01  6.3389442595152812e-01  6.3390459280262934e-01  6.3391851133629651e-01  6.3393587442095978e-01  6.3395629790550978e-01  6.3397932783096755e-01  6.3400444859085980e-01  6.3403109187893147e-01  6.3405864632542219e-01  6.3408646773258670e-01  6.3411388977139982e-01  6.3414023499567074e-01  6.3416482612297775e-01  6.3418699762956487e-01  6.3420610769688401e-01  6.3422155046083672e-01  6.3423276843000997e-01  6.3423926484883986e-01  6.3424061567151979e-01  6.3423648075655192e-01  6.3422661394435464e-01  6.3421087178804680e-01  6.3418922074038908e-01  6.3416174248239210e-01  6.3412863689746646e-01  6.3409022210126520e-01  6.3404693100599130e-01  6.3399930411654870e-01  6.3394797851748352e-01  6.3389367320656831e-01  6.3383717109728899e-01  6.3377929824229595e-01  6.3372090112351009e-01  6.3366282310472466e-01  6.3360588127167183e-01  6.3355084487913793e-01  6.3349841644063898e-01  6.3344921614933281e-01  6.3340376991451064e-01  6.3336250093017177e-01  6.3332572444697877e-01  6.3329364534363752e-01  6.3326635818361343e-01  6.3324384963281255e-01  6.3322600328567080e-01  6.3321260697155790e-01  6.3320336247600539e-01  6.3319789747600597e-01  6.3319577942360328e-01  6.3319653105039708e-01  6.3319964706869314e-01  6.3320461148737139e-01  6.3321091474487723e-01  6.3321806965560223e-01  6.3322562508827174e-01  6.3323317644136146e-01  6.3324037235476649e-01  6.3324691761880036e-01  6.3325257276079827e-01  6.3325715116462722e-01  6.3326051475043443e-01  6.3326256924979041e-01  6.3326326297462632e-01  6.3380285328884534e-01  6.3380496872408443e-01  6.3381128018437871e-01  6.3382164344363523e-01  6.3383582859652388e-01  6.3385352114275662e-01  6.3387432862075788e-01  6.3389778833694355e-01  6.3392337589842673e-01  6.3395051438456029e-01  6.3397858411476260e-01  6.3400693300310229e-01  6.3403488742125813e-01  6.3406176344580334e-01  6.3408687842780187e-01  6.3410956289996923e-01  6.3412917282361936e-01  6.3414510208963759e-01  6.3415679509182077e-01  6.3416375909851042e-01  6.3416557605652202e-01  6.3416191342963080e-01  6.3415253375533920e-01  6.3413730274718216e-01  6.3411619582971346e-01  6.3408930287939258e-01  6.3405683074329977e-01  6.3401910298909325e-01  6.3397655639248829e-01  6.3392973386515983e-01  6.3387927375133379e-01  6.3382589558329605e-01  6.3377038254523188e-01  6.3371356114800204e-01  6.3365627892198995e-01  6.3359938118024439e-01  6.3354368803373828e-01  6.3348997283315855e-01  6.3343894302960324e-01  6.3339122411945770e-01  6.3334734698552886e-01  6.3330773864890255e-01  6.3327271624300374e-01  6.3324248393367999e-01  6.3321713254403489e-01  6.3319664177931223e-01  6.3318088508855774e-01  6.3316963720226205e-01  6.3316258423585192e-01  6.3315933609931530e-01  6.3315944087660547e-01  6.3316240078112795e-01  6.3316768921135302e-01  6.3317476831055231e-01  6.3318310626663754e-01  6.3319219340595623e-01  6.3320155605890205e-01  6.3321076731845805e-01  6.3321945416073511e-01  6.3322730087595380e-01  6.3323404924593474e-01  6.3323949626895049e-01  6.3324349041078531e-01  6.3324592737927743e-01  6.3324674946215587e-01  6.3370807637558779e-01  6.3371023857830877e-01  6.3371669096738714e-01  6.3372728428662350e-01  6.3374178187342267e-01  6.3375986061552880e-01  6.3378111823305738e-01  6.3380508160952631e-01  6.3383121579897017e-01  6.3385893352554146e-01  6.3388760516556419e-01  6.3391656927457063e-01  6.3394514365743038e-01  6.3397263689165051e-01  6.3399836022556122e-01  6.3402163982326154e-01  6.3404182931875963e-01  6.3405832255400540e-01  6.3407056626623082e-01  6.3407807240516545e-01  6.3408042970187872e-01  6.3407731410031543e-01  6.3406849775846741e-01  6.3405385649719415e-01  6.3403337565681805e-01  6.3400715421478626e-01  6.3397540681061826e-01  6.3393846319078240e-01  6.3389676461621525e-01  6.3385085693347265e-01  6.3380138018740761e-01  6.3374905479264676e-01  6.3369466445440337e-01  6.3363903630234886e-01  6.3358301900365666e-01  6.3352745985581116e-01  6.3347318198665348e-01  6.3342096277985249e-01  6.3337151447882456e-01  6.3332546763177511e-01  6.3328335773363942e-01  6.3324561517466316e-01  6.3321255843132362e-01  6.3318439033590834e-01  6.3316119725932885e-01  6.3314295113530294e-01  6.3312951434966569e-01  6.3312064749576480e-01  6.3311601984943933e-01  6.3311522225297445e-01  6.3311778199805779e-01  6.3312317924011985e-01  6.3313086440942790e-01  6.3314027600651668e-01  6.3315085805931992e-01  6.3316207636554656e-01  6.3317343256380876e-01  6.3318447521030496e-01  6.3319480736349132e-01  6.3320409061266048e-01  6.3321204593359937e-01  6.3321845210646310e-01  6.3322314262031343e-01  6.3322600201869927e-01  6.3322696573793502e-01  6.3360244248098019e-01  6.3360465832114843e-01  6.3361127212339774e-01  6.3362212904718518e-01  6.3363698479278163e-01  6.3365550643210478e-01  6.3367728038040572e-01  6.3370182140110431e-01  6.3372858218908157e-01  6.3375696331436659e-01  6.3378632352152553e-01  6.3381599050138349e-01  6.3384527221687237e-01  6.3387346874262684e-01  6.3389988452531654e-01  6.3392384098467569e-01  6.3394468936943726e-01  6.3396182370178999e-01  6.3397469352593261e-01  6.3398281610412710e-01  6.3398578768553637e-01  6.3398329348328608e-01  6.3397511609328439e-01  6.3396114227304901e-01  6.3394136810224833e-01  6.3391590245457363e-01  6.3388496850707143e-01  6.3384890286705664e-01  6.3380815189594608e-01  6.3376326491889479e-01  6.3371488413841692e-01  6.3366373120142949e-01  6.3361059056517977e-01  6.3355629009048020e-01  6.3350167958243120e-01  6.3344760822032009e-01  6.3339490194210368e-01  6.3334434184228283e-01  6.3329664450274614e-01  6.3325244493664457e-01  6.3321228256153372e-01  6.3317659039775598e-01  6.3314568752369904e-01  6.3311977471654801e-01  6.3309893319285904e-01  6.3308312642495723e-01  6.3307220504807926e-01  6.3306591481802921e-01  6.3306390743507313e-01  6.3306575387661801e-01  6.3307095976036409e-01  6.3307898219484815e-01  6.3308924752543194e-01  6.3310116935232175e-01  6.3311416613962879e-01  6.3312767760820965e-01  6.3314117902798117e-01  6.3315419264646389e-01  6.3316629579030537e-01  6.3317712556104222e-01  6.3318638044596609e-01  6.3319381950541631e-01  6.3319926000245474e-01  6.3320257438191829e-01  6.3320369053180958e-01  6.3348666644879026e-01  6.3348894257955202e-01  6.3349573759911171e-01  6.3350689059903942e-01  6.3352214884128311e-01  6.3354116846804898e-01  6.3356352318817988e-01  6.3358871401346495e-01  6.3361617951266136e-01  6.3364530631559690e-01  6.3367543984616115e-01  6.3370589543197464e-01  6.3373596994697379e-01  6.3376495400414978e-01  6.3379214459953359e-01  6.3381685807697652e-01  6.3383844327039907e-01  6.3385629461181636e-01  6.3386986488252428e-01  6.3387867722794444e-01  6.3388233607217059e-01  6.3388053659940713e-01  6.3387307256619074e-01  6.3385984239527882e-01  6.3384085362519671e-01  6.3381622572239726e-01  6.3378619106910905e-01  6.3375109377190875e-01  6.3371138589232268e-01  6.3366762076781369e-01  6.3362044319176647e-01  6.3357057634896619e-01  6.3351880561302509e-01  6.3346595959417495e-01  6.3341288910633253e-01  6.3336044493278476e-01  6.3330945538881900e-01  6.3326070468432838e-01  6.3321491298248667e-01  6.3317271886585558e-01  6.3313466469716762e-01  6.3310118514574187e-01  6.3307259897827728e-01  6.3304910411477699e-01  6.3303077594492474e-01  6.3301756893666572e-01  6.3300932154861722e-01  6.3300576436621347e-01  6.3300653123535355e-01  6.3301117299122389e-01  6.3301917324551682e-01  6.3302996562138347e-01  6.3304295179644310e-01  6.3305751972742474e-01  6.3307306141013686e-01  6.3308898942851843e-01  6.3310475148564238e-01  6.3311984222065298e-01  6.3313381187903561e-01  6.3314627173548055e-01  6.3315689652364993e-01  6.3316542445582047e-01  6.3317165563259448e-01  6.3317544969980333e-01  6.3317672645023726e-01  6.3336156627192897e-01  6.3336390888783201e-01  6.3337090351650549e-01  6.3338238280270309e-01  6.3339808489052529e-01  6.3341765402554573e-01  6.3344064996721017e-01  6.3346655849828959e-01  6.3349480242965628e-01  6.3352475277259734e-01  6.3355574002363058e-01  6.3358706571902845e-01  6.3361801446849408e-01  6.3364786653810012e-01  6.3367591088744757e-01  6.3370145849130688e-01  6.3372385574407752e-01  6.3374249768430924e-01  6.3375684069127691e-01  6.3376641427066238e-01  6.3377083157748959e-01  6.3376979837040204e-01  6.3376312019341641e-01  6.3375070776847764e-01  6.3373258072148464e-01  6.3370886972826923e-01  6.3367981698323828e-01  6.3364577469010286e-01  6.3360720117964475e-01  6.3356465429824649e-01  6.3351878180544996e-01  6.3347030864454279e-01  6.3342002115487428e-01  6.3336874856609282e-01  6.3331734238648041e-01  6.3326665450193986e-01  6.3321751491470779e-01  6.3317071007270787e-01  6.3312696267580271e-01  6.3308691371086856e-01  6.3305110727317515e-01  6.3301997850941794e-01  6.3299384483107646e-01  6.3297290045444643e-01  6.3295721433358965e-01  6.3294673157073533e-01  6.3294127831708680e-01  6.3294057004832094e-01  6.3294422294670150e-01  6.3295176794677821e-01  6.3296266686022351e-01  6.3297632991932928e-01  6.3299213406777299e-01  6.3300944137217530e-01  6.3302761693407339e-01  6.3304604560913358e-01  6.3306414680385048e-01  6.3308138672286118e-01  6.3309728765689033e-01  6.3311143418024396e-01  6.3312347644640699e-01  6.3313313108458302e-01  6.3314018042488507e-01  6.3314447085900627e-01  6.3314591369970330e-01  6.3322806271743060e-01  6.3323047728237858e-01  6.3323768767991517e-01  6.3324951986378875e-01  6.3326570234611557e-01  6.3328586671728604e-01  6.3330955778154130e-01  6.3333624486452744e-01  6.3336533362920666e-01  6.3339617800676951e-01  6.3342809214225471e-01  6.3346036250339244e-01  6.3349226038730500e-01  6.3352305493191508e-01  6.3355202654893694e-01  6.3357848058464361e-01  6.3360176095505860e-01  6.3362126344170000e-01  6.3363644828531374e-01  6.3364685170793578e-01  6.3365209602307460e-01  6.3365189804410194e-01  6.3364607561698771e-01  6.3363455229667998e-01  6.3361736034184024e-01  6.3359464219336525e-01  6.3356665042202964e-01  6.3353374588866052e-01  6.3349639371626099e-01  6.3345515669407060e-01  6.3341068583595461e-01  6.3336370794293984e-01  6.3331501020652492e-01  6.3326542214028370e-01  6.3321579538933603e-01  6.3316698216815925e-01  6.3311981318669586e-01  6.3307507596705348e-01  6.3303349443756440e-01  6.3299571060033832e-01  6.3296226889401752e-01  6.3293360364449103e-01  6.3291002979716315e-01  6.3289173703147605e-01  6.3287878737215297e-01  6.3287111641794713e-01  6.3286853820600919e-01  6.3287075356922373e-01  6.3287736168093911e-01  6.3288787431255533e