<?xml version="1.0"?>
<VTKFile type="UnstructuredGrid"  version="0.1"  >
<UnstructuredGrid>
<Piece  NumberOfPoints="4225" NumberOfCells="8192">
<Points>
<DataArray  type="Float64"  NumberOfComponents="3"  format="ascii">0 0 0  0.015625 0 0  0.03125 0 0  0.046875 0 0  0.0625 0 0  0.078125 0 0  0.09375 0 0  0.109375 0 0  0.125 0 0  0.140625 0 0  0.15625 0 0  0.171875 0 0  0.1875 0 0  0.203125 0 0  0.21875 0 0  0.234375 0 0  0.25 0 0  0.265625 0 0  0.28125 0 0  0.296875 0 0  0.3125 0 0  0.328125 0 0  0.34375 0 0  0.359375 0 0  0.375 0 0  0.390625 0 0  0.40625 0 0  0.421875 0 0  0.4375 0 0  0.453125 0 0  0.46875 0 0  0.484375 0 0  0.5 0 0  0.515625 0 0  0.53125 0 0  0.546875 0 0  0.5625 0 0  0.578125 0 0  0.59375 0 0  0.609375 0 0  0.625 0 0  0.640625 0 0  0.65625 0 0  0.671875 0 0  0.6875 0 0  0.703125 0 0  0.71875 0 0  0.734375 0 0  0.75 0 0  0.765625 0 0  0.78125 0 0  0.796875 0 0  0.8125 0 0  0.828125 0 0  0.84375 0 0  0.859375 0 0  0.875 0 0  0.890625 0 0  0.90625 0 0  0.921875 0 0  0.9375 0 0  0.953125 0 0  0.96875 0 0  0.984375 0 0  1 0 0  0 0.015625 0  0.015625 0.015625 0  0.03125 0.015625 0  0.046875 0.015625 0  0.0625 0.015625 0  0.078125 0.015625 0  0.09375 0.015625 0  0.109375 0.015625 0  0.125 0.015625 0  0.140625 0.015625 0  0.15625 0.015625 0  0.171875 0.015625 0  0.1875 0.015625 0  0.203125 0.015625 0  0.21875 0.015625 0  0.234375 0.015625 0  0.25 0.015625 0  0.265625 0.015625 0  0.28125 0.015625 0  0.296875 0.015625 0  0.3125 0.015625 0  0.328125 0.015625 0  0.34375 0.015625 0  0.359375 0.015625 0  0.375 0.015625 0  0.390625 0.015625 0  0.40625 0.015625 0  0.421875 0.015625 0  0.4375 0.015625 0  0.453125 0.015625 0  0.46875 0.015625 0  0.484375 0.015625 0  0.5 0.015625 0  0.515625 0.015625 0  0.53125 0.015625 0  0.546875 0.015625 0  0.5625 0.015625 0  0.578125 0.015625 0  0.59375 0.015625 0  0.609375 0.015625 0  0.625 0.015625 0  0.640625 0.015625 0  0.65625 0.015625 0  0.671875 0.015625 0  0.6875 0.015625 0  0.703125 0.015625 0  0.71875 0.015625 0  0.734375 0.015625 0  0.75 0.015625 0  0.765625 0.015625 0  0.78125 0.015625 0  0.796875 0.015625 0  0.8125 0.015625 0  0.828125 0.015625 0  0.84375 0.015625 0  0.859375 0.015625 0  0.875 0.015625 0  0.890625 0.015625 0  0.90625 0.015625 0  0.921875 0.015625 0  0.9375 0.015625 0  0.953125 0.015625 0  0.96875 0.015625 0  0.984375 0.015625 0  1 0.015625 0  0 0.03125 0  0.015625 0.03125 0  0.03125 0.03125 0  0.046875 0.03125 0  0.0625 0.03125 0  0.078125 0.03125 0  0.09375 0.03125 0  0.109375 0.03125 0  0.125 0.03125 0  0.140625 0.03125 0  0.15625 0.03125 0  0.171875 0.03125 0  0.1875 0.03125 0  0.203125 0.03125 0  0.21875 0.03125 0  0.234375 0.03125 0  0.25 0.03125 0  0.265625 0.03125 0  0.28125 0.03125 0  0.296875 0.03125 0  0.3125 0.03125 0  0.328125 0.03125 0  0.34375 0.03125 0  0.359375 0.03125 0  0.375 0.03125 0  0.390625 0.03125 0  0.40625 0.03125 0  0.421875 0.03125 0  0.4375 0.03125 0  0.453125 0.03125 0  0.46875 0.03125 0  0.484375 0.03125 0  0.5 0.03125 0  0.515625 0.03125 0  0.53125 0.03125 0  0.546875 0.03125 0  0.5625 0.03125 0  0.578125 0.03125 0  0.59375 0.03125 0  0.609375 0.03125 0  0.625 0.03125 0  0.640625 0.03125 0  0.65625 0.03125 0  0.671875 0.03125 0  0.6875 0.03125 0  0.703125 0.03125 0  0.71875 0.03125 0  0.734375 0.03125 0  0.75 0.03125 0  0.765625 0.03125 0  0.78125 0.03125 0  0.796875 0.03125 0  0.8125 0.03125 0  0.828125 0.03125 0  0.84375 0.03125 0  0.859375 0.03125 0  0.875 0.03125 0  0.890625 0.03125 0  0.90625 0.03125 0  0.921875 0.03125 0  0.9375 0.03125 0  0.953125 0.03125 0  0.96875 0.03125 0  0.984375 0.03125 0  1 0.03125 0  0 0.046875 0  0.015625 0.046875 0  0.03125 0.046875 0  0.046875 0.046875 0  0.0625 0.046875 0  0.078125 0.046875 0  0.09375 0.046875 0  0.109375 0.046875 0  0.125 0.046875 0  0.140625 0.046875 0  0.15625 0.046875 0  0.171875 0.046875 0  0.1875 0.046875 0  0.203125 0.046875 0  0.21875 0.046875 0  0.234375 0.046875 0  0.25 0.046875 0  0.265625 0.046875 0  0.28125 0.046875 0  0.296875 0.046875 0  0.3125 0.046875 0  0.328125 0.046875 0  0.34375 0.046875 0  0.359375 0.046875 0  0.375 0.046875 0  0.390625 0.046875 0  0.40625 0.046875 0  0.421875 0.046875 0  0.4375 0.046875 0  0.453125 0.046875 0  0.46875 0.046875 0  0.484375 0.046875 0  0.5 0.046875 0  0.515625 0.046875 0  0.53125 0.046875 0  0.546875 0.046875 0  0.5625 0.046875 0  0.578125 0.046875 0  0.59375 0.046875 0  0.609375 0.046875 0  0.625 0.046875 0  0.640625 0.046875 0  0.65625 0.046875 0  0.671875 0.046875 0  0.6875 0.046875 0  0.703125 0.046875 0  0.71875 0.046875 0  0.734375 0.046875 0  0.75 0.046875 0  0.765625 0.046875 0  0.78125 0.046875 0  0.796875 0.046875 0  0.8125 0.046875 0  0.828125 0.046875 0  0.84375 0.046875 0  0.859375 0.046875 0  0.875 0.046875 0  0.890625 0.046875 0  0.90625 0.046875 0  0.921875 0.046875 0  0.9375 0.046875 0  0.953125 0.046875 0  0.96875 0.046875 0  0.984375 0.046875 0  1 0.046875 0  0 0.0625 0  0.015625 0.0625 0  0.03125 0.0625 0  0.046875 0.0625 0  0.0625 0.0625 0  0.078125 0.0625 0  0.09375 0.0625 0  0.109375 0.0625 0  0.125 0.0625 0  0.140625 0.0625 0  0.15625 0.0625 0  0.171875 0.0625 0  0.1875 0.0625 0  0.203125 0.0625 0  0.21875 0.0625 0  0.234375 0.0625 0  0.25 0.0625 0  0.265625 0.0625 0  0.28125 0.0625 0  0.296875 0.0625 0  0.3125 0.0625 0  0.328125 0.0625 0  0.34375 0.0625 0  0.359375 0.0625 0  0.375 0.0625 0  0.390625 0.0625 0  0.40625 0.0625 0  0.421875 0.0625 0  0.4375 0.0625 0  0.453125 0.0625 0  0.46875 0.0625 0  0.484375 0.0625 0  0.5 0.0625 0  0.515625 0.0625 0  0.53125 0.0625 0  0.546875 0.0625 0  0.5625 0.0625 0  0.578125 0.0625 0  0.59375 0.0625 0  0.609375 0.0625 0  0.625 0.0625 0  0.640625 0.0625 0  0.65625 0.0625 0  0.671875 0.0625 0  0.6875 0.0625 0  0.703125 0.0625 0  0.71875 0.0625 0  0.734375 0.0625 0  0.75 0.0625 0  0.765625 0.0625 0  0.78125 0.0625 0  0.796875 0.0625 0  0.8125 0.0625 0  0.828125 0.0625 0  0.84375 0.0625 0  0.859375 0.0625 0  0.875 0.0625 0  0.890625 0.0625 0  0.90625 0.0625 0  0.921875 0.0625 0  0.9375 0.0625 0  0.953125 0.0625 0  0.96875 0.0625 0  0.984375 0.0625 0  1 0.0625 0  0 0.078125 0  0.015625 0.078125 0  0.03125 0.078125 0  0.046875 0.078125 0  0.0625 0.078125 0  0.078125 0.078125 0  0.09375 0.078125 0  0.109375 0.078125 0  0.125 0.078125 0  0.140625 0.078125 0  0.15625 0.078125 0  0.171875 0.078125 0  0.1875 0.078125 0  0.203125 0.078125 0  0.21875 0.078125 0  0.234375 0.078125 0  0.25 0.078125 0  0.265625 0.078125 0  0.28125 0.078125 0  0.296875 0.078125 0  0.3125 0.078125 0  0.328125 0.078125 0  0.34375 0.078125 0  0.359375 0.078125 0  0.375 0.078125 0  0.390625 0.078125 0  0.40625 0.078125 0  0.421875 0.078125 0  0.4375 0.078125 0  0.453125 0.078125 0  0.46875 0.078125 0  0.484375 0.078125 0  0.5 0.078125 0  0.515625 0.078125 0  0.53125 0.078125 0  0.546875 0.078125 0  0.5625 0.078125 0  0.578125 0.078125 0  0.59375 0.078125 0  0.609375 0.078125 0  0.625 0.078125 0  0.640625 0.078125 0  0.65625 0.078125 0  0.671875 0.078125 0  0.6875 0.078125 0  0.703125 0.078125 0  0.71875 0.078125 0  0.734375 0.078125 0  0.75 0.078125 0  0.765625 0.078125 0  0.78125 0.078125 0  0.796875 0.078125 0  0.8125 0.078125 0  0.828125 0.078125 0  0.84375 0.078125 0  0.859375 0.078125 0  0.875 0.078125 0  0.890625 0.078125 0  0.90625 0.078125 0  0.921875 0.078125 0  0.9375 0.078125 0  0.953125 0.078125 0  0.96875 0.078125 0  0.984375 0.078125 0  1 0.078125 0  0 0.09375 0  0.015625 0.09375 0  0.03125 0.09375 0  0.046875 0.09375 0  0.0625 0.09375 0  0.078125 0.09375 0  0.09375 0.09375 0  0.109375 0.09375 0  0.125 0.09375 0  0.140625 0.09375 0  0.15625 0.09375 0  0.171875 0.09375 0  0.1875 0.09375 0  0.203125 0.09375 0  0.21875 0.09375 0  0.234375 0.09375 0  0.25 0.09375 0  0.265625 0.09375 0  0.28125 0.09375 0  0.296875 0.09375 0  0.3125 0.09375 0  0.328125 0.09375 0  0.34375 0.09375 0  0.359375 0.09375 0  0.375 0.09375 0  0.390625 0.09375 0  0.40625 0.09375 0  0.421875 0.09375 0  0.4375 0.09375 0  0.453125 0.09375 0  0.46875 0.09375 0  0.484375 0.09375 0  0.5 0.09375 0  0.515625 0.09375 0  0.53125 0.09375 0  0.546875 0.09375 0  0.5625 0.09375 0  0.578125 0.09375 0  0.59375 0.09375 0  0.609375 0.09375 0  0.625 0.09375 0  0.640625 0.09375 0  0.65625 0.09375 0  0.671875 0.09375 0  0.6875 0.09375 0  0.703125 0.09375 0  0.71875 0.09375 0  0.734375 0.09375 0  0.75 0.09375 0  0.765625 0.09375 0  0.78125 0.09375 0  0.796875 0.09375 0  0.8125 0.09375 0  0.828125 0.09375 0  0.84375 0.09375 0  0.859375 0.09375 0  0.875 0.09375 0  0.890625 0.09375 0  0.90625 0.09375 0  0.921875 0.09375 0  0.9375 0.09375 0  0.953125 0.09375 0  0.96875 0.09375 0  0.984375 0.09375 0  1 0.09375 0  0 0.109375 0  0.015625 0.109375 0  0.03125 0.109375 0  0.046875 0.109375 0  0.0625 0.109375 0  0.078125 0.109375 0  0.09375 0.109375 0  0.109375 0.109375 0  0.125 0.109375 0  0.140625 0.109375 0  0.15625 0.109375 0  0.171875 0.109375 0  0.1875 0.109375 0  0.203125 0.109375 0  0.21875 0.109375 0  0.234375 0.109375 0  0.25 0.109375 0  0.265625 0.109375 0  0.28125 0.109375 0  0.296875 0.109375 0  0.3125 0.109375 0  0.328125 0.109375 0  0.34375 0.109375 0  0.359375 0.109375 0  0.375 0.109375 0  0.390625 0.109375 0  0.40625 0.109375 0  0.421875 0.109375 0  0.4375 0.109375 0  0.453125 0.109375 0  0.46875 0.109375 0  0.484375 0.109375 0  0.5 0.109375 0  0.515625 0.109375 0  0.53125 0.109375 0  0.546875 0.109375 0  0.5625 0.109375 0  0.578125 0.109375 0  0.59375 0.109375 0  0.609375 0.109375 0  0.625 0.109375 0  0.640625 0.109375 0  0.65625 0.109375 0  0.671875 0.109375 0  0.6875 0.109375 0  0.703125 0.109375 0  0.71875 0.109375 0  0.734375 0.109375 0  0.75 0.109375 0  0.765625 0.109375 0  0.78125 0.109375 0  0.796875 0.109375 0  0.8125 0.109375 0  0.828125 0.109375 0  0.84375 0.109375 0  0.859375 0.109375 0  0.875 0.109375 0  0.890625 0.109375 0  0.90625 0.109375 0  0.921875 0.109375 0  0.9375 0.109375 0  0.953125 0.109375 0  0.96875 0.109375 0  0.984375 0.109375 0  1 0.109375 0  0 0.125 0  0.015625 0.125 0  0.03125 0.125 0  0.046875 0.125 0  0.0625 0.125 0  0.078125 0.125 0  0.09375 0.125 0  0.109375 0.125 0  0.125 0.12
[...]
<PointData  Scalars="f_12"> 
<DataArray  type="Float64"  Name="f_12"  format="ascii">6.3350916195024998e-01  6.3350969503132637e-01  6.3351128015483682e-01  6.3351387322358732e-01  6.3351740180654936e-01  6.3352176645764924e-01  6.3352684262374426e-01  6.3353248304143062e-01  6.3353852057827709e-01  6.3354477146718546e-01  6.3355103887589670e-01  6.3355711674800685e-01  6.3356279384735725e-01  6.3356785793425674e-01  6.3357209999953046e-01  6.3357531848070692e-01  6.3357732338363670e-01  6.3357794023247671e-01  6.3357701377131215e-01  6.3357441134191828e-01  6.3357002586448796e-01  6.3356377835190836e-01  6.3355561989360587e-01  6.3354553305238326e-01  6.3353353262722090e-01  6.3351966574685681e-01  6.3350401127313638e-01  6.3348667850951756e-01  6.3346780522839286e-01  6.3344755505045669e-01  6.3342611422941464e-01  6.3340368791492274e-01  6.3338049598473201e-01  6.3335676855251177e-01  6.3333274126977945e-01  6.3330865054792884e-01  6.3328472882896580e-01  6.3326120003101283e-01  6.3323827528709387e-01  6.3321614908373036e-01  6.3319499589043360e-01  6.3317496735346346e-01  6.3315619010847490e-01  6.3313876424787308e-01  6.3312276246047139e-01  6.3310822984367643e-01  6.3309518437192647e-01  6.3308361798946589e-01  6.3307349828077719e-01  6.3306477065832378e-01  6.3305736099503340e-01  6.3305117861865778e-01  6.3304611957731294e-01  6.3304207008063462e-01  6.3303891001958867e-01  6.3303651647041004e-01  6.3303476709452400e-01  6.3303354335637430e-01  6.3303273349404576e-01  6.3303223519224405e-01  6.3303195792212708e-01  6.3303182492626664e-01  6.3303177483845008e-01  6.3303176293616059e-01  6.3303176201272193e-01  6.3350521863555564e-01  6.3350575265859499e-01  6.3350734104841611e-01  6.3350993941316058e-01  6.3351347528192048e-01  6.3351784915231724e-01  6.3352293640311186e-01  6.3352858969424475e-01  6.3353464181120600e-01  6.3354090890257198e-01  6.3354719405266724e-01  6.3355329112562320e-01  6.3355898881260786e-01  6.3356407481059063e-01  6.3356834005854434e-01  6.3357158295531057e-01  6.3357361348234420e-01  6.3357425715420068e-01  6.3357335872000220e-01  6.3357078554035984e-01  6.3356643056661743e-01  6.3356021485306036e-01  6.3355208953822795e-01  6.3354203723890090e-01  6.3353007280990570e-01  6.3351624343472313e-01  6.3350062802605145e-01  6.3348333593183548e-01  6.3346450496050521e-01  6.3344429875869024e-01  6.3342290359469478e-01  6.3340052462056717e-01  6.3337738170364877e-01  6.3335370493396104e-01  6.3332972992573877e-01  6.3330569303898021e-01  6.3328182664953592e-01  6.3325835459373137e-01  6.3323548790602113e-01  6.3321342095623390e-01  6.3319232807757320e-01  6.3317236075886973e-01  6.3315364545586128e-01  6.3313628205748274e-01  6.3312034302491593e-01  6.3310587320374512e-01  6.3309289029302396e-01  6.3308138593936836e-01  6.3307132740938521e-01  6.3306265978004372e-01  6.3305530857435466e-01  6.3304918275942257e-01  6.3304417801609558e-01  6.3304018018458341e-01  6.3303706878901800e-01  6.3303472054636634e-01  6.3303301277149449e-01  6.3303182660022894e-01  6.3303104996521875e-01  6.3303058027404646e-01  6.3303032675395965e-01  6.3303021244136681e-01  6.3303017580571841e-01  6.3303017200581535e-01  6.3303017378156290e-01  6.3349341509723422e-01  6.3349395187525237e-01  6.3349554956751430e-01  6.3349816333961628e-01  6.3350172060321586e-01  6.3350612169506582e-01  6.3351124179823615e-01  6.3351693335082804e-01  6.3352302889943568e-01  6.3352934434603592e-01  6.3353568252998571e-01  6.3354183708110923e-01  6.3354759647535475e-01  6.3355274822110519e-01  6.3355708310177006e-01  6.3356039939861974e-01  6.3356250701685024e-01  6.3356323143754700e-01  6.3356241741865627e-01  6.3355993236942032e-01  6.3355566932522134e-01  6.3354954945370356e-01  6.3354152402865360e-01  6.3353157581566055e-01  6.3351971982320410e-01  6.3350600338467744e-01  6.3349050555095410e-01  6.3347333578938003e-01  6.3345463200316676e-01  6.3343455790454584e-01  6.3341329979491379e-01  6.3339106282462165e-01  6.3336806682300339e-01  6.3334454180464939e-01  6.3332072326985112e-01  6.3329684742474524e-01  6.3327314644939270e-01  6.3324984393962447e-01  6.3322715064110446e-01  6.3320526058228477e-01  6.3318434769767729e-01  6.3316456301532853e-01  6.3314603246374124e-01  6.3312885533472263e-01  6.3311310342035976e-01  6.3309882082482993e-01  6.3308602443508799e-01  6.3307470501863861e-01  6.3306482890167459e-01  6.3305634016706491e-01  6.3304916329937633e-01  6.3304320619378984e-01  6.3303836343792697e-01  6.3303451977076108e-01  6.3303155362140207e-01  6.3302934063299032e-01  6.3302775708329850e-01  6.3302668312365973e-01  6.3302600577072721e-01  6.3302562160015952e-01  6.3302543910619147e-01  6.3302538070479852e-01  6.3302538436966083e-01  6.3302540489870940e-01  6.3302541480261687e-01  6.3347383148635894e-01  6.3347437306661303e-01  6.3347598618191914e-01  6.3347862551646061e-01  6.3348221828063467e-01  6.3348666454284397e-01  6.3349183916135743e-01  6.3349759420651519e-01  6.3350376182903745e-01  6.3351015752236550e-01  6.3351658372013331e-01  6.3352283366421613e-01  6.3352869547434876e-01  6.3353395634691678e-01  6.3353840680809193e-01  6.3354184494484322e-01  6.3354408053642530e-01  6.3354493900870246e-01  6.3354426513422546e-01  6.3354192640247176e-01  6.3353781598735570e-01  6.3353185524323918e-01  6.3352399566649920e-01  6.3351422026740500e-01  6.3350254430679520e-01  6.3348901536389723e-01  6.3347371271566821e-01  6.3345674602413293e-01  6.3343825334608994e-01  6.3341839849869519e-01  6.3339736783407408e-01  6.3337536649531512e-01  6.3335261424397138e-01  6.3332934096449545e-01  6.3330578196292153e-01  6.3328217318475144e-01  6.3325874647982650e-01  6.3323572503973125e-01  6.3321331912611123e-01  6.3319172219675390e-01  6.3317110752127748e-01  6.3315162536094005e-01  6.3313340076857660e-01  6.3311653204593743e-01  6.3310108987736546e-01  6.3308711714110533e-01  6.3307462938266457e-01  6.3306361591860361e-01  6.3305404152399003e-01  6.3304584864281532e-01  6.3303896004827076e-01  6.3303328186941621e-01  6.3302870689293034e-01  6.3302511804379391e-01  6.3302239194740584e-01  6.3302040247807445e-01  6.3301902420516587e-01  6.3301813565814158e-01  6.3301762234450276e-01  6.3301737946914605e-01  6.3301731431839914e-01  6.3301734828568934e-01  6.3301741852725335e-01  6.3301747924473473e-01  6.3301750257396694e-01  6.3344660095461336e-01  6.3344714935552848e-01  6.3344878391369730e-01  6.3345145879261677e-01  6.3345510092335233e-01  6.3345961000133610e-01  6.3346486043387551e-01  6.3347070378098236e-01  6.3347697164421590e-01  6.3348347895046797e-01  6.3349002757092554e-01  6.3349641020989800e-01  6.3350241449379396e-01  6.3350782718718601e-01  6.3351243846048844e-01  6.3351604613218981e-01  6.3351845980771160e-01  6.3351950483684094e-01  6.3351902601239829e-01  6.3351689093452102e-01  6.3351299296789643e-01  6.3350725372369388e-01  6.3349962500404111e-01  6.3349009015481150e-01  6.3347866478235193e-01  6.3346539680165059e-01  6.3345036579736136e-01  6.3343368169498926e-01  6.3341548275714687e-01  6.3339593293861118e-01  6.3337521865322399e-01  6.3335354502458896e-01  6.3333113171005584e-01  6.3330820840263147e-01  6.3328501012730365e-01  6.3326177245595905e-01  6.3323872676805570e-01  6.3321609568220194e-01  6.3319408877692041e-01  6.3317289870767102e-01  6.3315269781253358e-01  6.3313363528189537e-01  6.3311583494917267e-01  6.3309939374090063e-01  6.3308438080611518e-01  6.3307083732709801e-01  6.3305877699643287e-01  6.3304818712897293e-01  6.3303903036193065e-01  6.3303124688214163e-01  6.3302475710704531e-01  6.3301946473548254e-01  6.3301526007656661e-01  6.3301202356006625e-01  6.3300962933040250e-01  6.3300794882881795e-01  6.3300685427456160e-01  6.3300622196578959e-01  6.3300593533353022e-01  6.3300588769638544e-01  6.3300598467827962e-01  6.3300614626514740e-01  6.3300630848786987e-01  6.3300642472724944e-01  6.3300646660160420e-01  6.3341190873124142e-01  6.3341246592457856e-01  6.3341412779711925e-01  6.3341684795538389e-01  6.3342055297623201e-01  6.3342514208162548e-01  6.3343048910636557e-01  6.3343644496270712e-01  6.3344284055533795e-01  6.3344949009245721e-01  6.3345619473208437e-01  6.3346274649730239e-01  6.3346893238979951e-01  6.3347453862778813e-01  6.3347935493201024e-01  6.3348317878201421e-01  6.3348581956412242e-01  6.3348710253253615e-01  6.3348687250594626e-01  6.3348499722402163e-01  6.3348137029142504e-01  6.3347591364177480e-01  6.3346857946039814e-01  6.3345935151291466e-01  6.3344824583670123e-01  6.3343531076417481e-01  6.3342062626060747e-01  6.3340430257481917e-01  6.3338647821833893e-01  6.3336731730705154e-01  6.3334700631825125e-01  6.3332575033456961e-01  6.3330376886348383e-01  6.3328129133608857e-01  6.3325855240059092e-01  6.3323578713375250e-01  6.3321322629666421e-01  6.3319109175950239e-01  6.3316959221340174e-01  6.3314891927677541e-01  6.3312924408914295e-01  6.3311071446881828e-01  6.3309345269270723e-01  6.3307755393784126e-01  6.3306308540575118e-01  6.3305008613271430e-01  6.3303856747146114e-01  6.3302851421325002e-01  6.3301988630350925e-01  6.3301262108985290e-01  6.3300663602858742e-01  6.3300183176532399e-01  6.3299809549743780e-01  6.3299530452132113e-01  6.3299332986606882e-01  6.3299203991767272e-01  6.3299130394403225e-01  6.3299099544080906e-01  6.3299099523061886e-01  6.3299119426218564e-01  6.3299149607053262e-01  6.3299181887275935e-01  6.3299209728533301e-01  6.3299228365737681e-01  6.3299234895325629e-01  6.3336999090563506e-01  6.3337055879987625e-01  6.3337225366102690e-01  6.3337502850699234e-01  6.3337880948939973e-01  6.3338349526154292e-01  6.3338895897052783e-01  6.3339505075058722e-01  6.3340160066959261e-01  6.3340842207304826e-01  6.3341531526337069e-01  6.3342207144693163e-01  6.3342847687710868e-01  6.3343431711836551e-01  6.3343938135408562e-01  6.3344346665944384e-01  6.3344638215996707e-01  6.3344795299665957e-01  6.3344802401975508e-01  6.3344646313549524e-01  6.3344316423400016e-01  6.3343804963147088e-01  6.3343107196677384e-01  6.3342221550094635e-01  6.3341149677835462e-01  6.3339896462012646e-01  6.3338469943410824e-01  6.3336881184092098e-01  6.3335144063253002e-01  6.3333275009769940e-01  6.3331292676712714e-01  6.3329217564917872e-01  6.3327071604402840e-01  6.3324877703878002e-01  6.3322659279784288e-01  6.3320439777066340e-01  6.3318242194227925e-01  6.3316088625073819e-01  6.3313999828932432e-01  6.3311994840118868e-01  6.3310090626017390e-01  6.3308301801531186e-01  6.3306640405861669e-01  6.3305115745725327e-01  6.3303734307252946e-01  6.3302499736983842e-01  6.3301412890589126e-01  6.3300471946253278e-01  6.3299672578037669e-01  6.3299008183082939e-01  6.3298470155218967e-01  6.3298048196491474e-01  6.3297730657323747e-01  6.3297504895554790e-01  6.3297357644465302e-01  6.3297275380144835e-01  6.3297244679167697e-01  6.3297252558499961e-01  6.3297286790784479e-01  6.3297336189539188e-01  6.3297390860227709e-01  6.3297442414494587e-01  6.3297484145991600e-01  6.3297511167086484e-01  6.3297520496072357e-01  6.3332113283151836e-01  6.3332171325458753e-01  6.3332344652955130e-01  6.3332628505990340e-01  6.3333015450611252e-01  6.3333495286451436e-01  6.3334055248770171e-01  6.3334680261111898e-01  6.3335353233616831e-01  6.3336055401242530e-01  6.3336766695517766e-01  6.3337466142931864e-01  6.3338132282650295e-01  6.3338743595934666e-01  6.3339278939424615e-01  6.3339717974306631e-01  6.3340041583348883e-01  6.3340232267827123e-01  6.3340274516517858e-01  6.3340155139206888e-01  6.3339863557572385e-01  6.3339392046863907e-01  6.3338735922521117e-01  6.3337893666757661e-01  6.3336866991172847e-01  6.3335660832644514e-01  6.3334283281102088e-01  6.3332745439277716e-01  6.3331061216172457e-01  6.3329247057716853e-01  6.3327321619895049e-01  6.3325305391364328e-01  6.3323220274253600e-01  6.3321089133275288e-01  6.3318935324445835e-01  6.3316782215498768e-01  6.3314652710431429e-01  6.3312568790519097e-01  6.3310551083564903e-01  6.3308618472170641e-01  6.3306787750483384e-01  6.3305073337284423e-01  6.3303487051529239e-01  6.3302037954601864e-01  6.3300732261674053e-01  6.3299573322701475e-01  6.3298561671776421e-01  6.3297695141812305e-01  6.3296969039895168e-01  6.3296376377138885e-01  6.3295908145573809e-01  6.3295553633525570e-01  6.3295300770147001e-01  6.3295136489289194e-01  6.3295047102768232e-01  6.3295018673321579e-01  6.3295037378150087e-01  6.3295089854875974e-01  6.3295163522944387e-01  6.3295246874856115e-01  6.3295329733017391e-01  6.3295403469309752e-01  6.3295461185613888e-01  6.3295497854395200e-01  6.3295510404191824e-01  6.3326566713126264e-01  6.3326626181226631e-01  6.3326803862241055e-01  6.3327094933193351e-01  6.3327491905078692e-01  6.3327984503888368e-01  6.3328559875818902e-01  6.3329202843674737e-01  6.3329896209301306e-01  6.3330621096114637e-01  6.3331357325166715e-01  6.3332083817680751e-01  6.3332779016593299e-01  6.3333421319339145e-01  6.3333989513906297e-01  6.3334463210071312e-01  6.3334823257700146e-01  6.3335052144074322e-01  6.3335134362390433e-01  6.3335056743896545e-01  6.3334808746588223e-01  6.3334382693997804e-01  6.3333773958376527e-01  6.3332981083484363e-01  6.3332005843259054e-01  6.3330853233827655e-01  6.3329531397651317e-01  6.3328051480057956e-01  6.3326427420006937e-01  6.3324675678615416e-01  6.3322814910707959e-01  6.3320865586360642e-01  6.3318849571020397e-01  6.3316789674203389e-01  6.3314709177924011e-01  6.3312631356800209e-01  6.3310579002158296e-01  6.3308573962390147e-01  6.3306636711297692e-01  6.3304785955230769e-01  6.3303038288547564e-01  6.3301407905383145e-01  6.3299906373983661e-01  6.3298542478029129e-01  6.3297322127486233e-01  6.3296248339651007e-01  6.3295321289193796e-01  6.3294538424237645e-01  6.3293894643824244e-01  6.3293382530594000e-01  6.3292992631176359e-01  6.3292713775701359e-01  6.3292533427043240e-01  6.3292438049929056e-01  6.3292413489913257e-01  6.3292445352449922e-01  6.3292519372879985e-01  6.3292621769060342e-01  6.3292739569528478e-01  6.3292860911421933e-01  6.3292975303743226e-01  6.3293073852859172e-01  6.3293149448250619e-01  6.3293196907413807e-01  6.3293213058872866e-01  6.3320397128039574e-01  6.3320458183046813e-01  6.3320640693592478e-01  6.3320939772296669e-01  6.3321347869984934e-01  6.3321854632156094e-01  6.3322447107661950e-01  6.3323110009216410e-01  6.3323826020358065e-01  6.3324576142717870e-01  6.3325340076824677e-01  6.3326096629192397e-01  6.3326824138050719e-01  6.3327500909796197e-01  6.3328105658047429e-01  6.3328617937089560e-01  6.3329018561494066e-01  6.3329290003807337e-01  6.3329416762431401e-01  6.3329385692183660e-01  6.3329186290533179e-01  6.3328810933172641e-01  6.3328255053396365e-01  6.3327517260703914e-01  6.3326599395125649e-01  6.3325506514959173e-01  6.3324246816914709e-01  6.3322831489094500e-01  6.3321274498769298e-01  6.3319592318540519e-01  6.3317803596147304e-01  6.3315928774831087e-01  6.3313989672733939e-01  6.3312009031198124e-01  6.3310010042966902e-01  6.3308015872082690e-01  6.3306049177677104e-01  6.3304131653813278e-01  6.3302283597072972e-01  6.3300523512707607e-01  6.3298867768950273e-01  6.3297330307587762e-01  6.3295922417195316e-01  6.3294652573614418e-01  6.3293526350367446e-01  6.3292546399800864e-01  6.3291712503869135e-01  6.3291021691655436e-01  6.3290468419013768e-01  6.3290044804159540e-01  6.3289740911683612e-01  6.3289545076364484e-01  6.3289444257346061e-01  6.3289424412765516e-01  6.3289470884779619e-01  6.3289568785156247e-01  6.3289703372164474e-01  6.3289860410376741e-01  6.3290026506127417e-01  6.3290189412662168e-01  6.3290338300351545e-01  6.3290463988621848e-01  6.3290559137378721e-01  6.3290618396597820e-01  6.3290638486069972e-01  6.3313646475562346e-01  6.3313709264817497e-01  6.3313897038880462e-01  6.3314204845806143e-01  6.3314625072119912e-01  6.3315147277301664e-01  6.3315758406182565e-01  6.3316443053860716e-01  6.3317183777532826e-01  6.3317961448859494e-01  6.3318755639870683e-01  6.3319545034942526e-01  6.3320307861014213e-01  6.3321022327946175e-01  6.3321667070748022e-01  6.3322221585328664e-01  6.3322666649451642e-01  6.3322984720724018e-01  6.3323160303722181e-01  6.3323180278772473e-01  6.3323034185469707e-01  6.3322714454729634e-01  6.3322216584028279e-01  6.3321539251465919e-01  6.3320684365388646e-01  6.3319657047495692e-01  6.3318465548650948e-01  6.3317121098006401e-01  6.3315637687530457e-01  6.3314031795599257e-01  6.3312322054914638e-01  6.3310528871608207e-01  6.3308674003904275e-01  6.3306780110070415e-01  6.3304870276497183e-01  6.3302967537544896e-01  6.3301094399211533e-01  6.3299272378678617e-01  6.3297521571372939e-01  6.3295860256365033e-01  6.3294304549758140e-01  6.3292868114269474e-01  6.3291561931541440e-01  6.3290394141913975e-01  6.3289369954500718e-01  6.3288491628493271e-01  6.3287758524711768e-01  6.3287167224572138e-01  6.3286711711897858e-01  6.3286383611419206e-01  6.3286172476429126e-01  6.3286066116949113e-01  6.3286050958940931e-01  6.3286112424609764e-01  6.3286235323697460e-01  6.3286404245868710e-01  6.3286603944833797e-01  6.3286819705699038e-01  6.3287037688127568e-01  6.3287245239142753e-01  6.3287431170713038e-01  6.3287585998515405e-01  6.3287702139393232e-01  6.3287774065937885e-01  6.3287798382181926e-01  6.3306360573554832e-01  6.3306425228637431e-01  6.3306618652252189e-01  6.3306935828747390e-01  6.3307369077376585e-01  6.3307907867628932e-01  6.3308539035526701e-01  6.3309247053174456e-01  6.3310014345718479e-01  6.3310821649086413e-01  6.3311648401268361e-01  6.3312473159441096e-01  6.3313274034892353e-01  6.3314029137457728e-01  6.3314717021032585e-01  6.3315317121673809e-01  6.3315810179869747e-01  6.3316178638743825e-01  6.3316407010280529e-01  6.3316482202130953e-01  6.3316393798174408e-01  6.3316134286778658e-01  6.3315699231603839e-01  6.3315087380814705e-01  6.3314300711681337e-01  6.3313344408745786e-01  6.3312226775004021e-01  6.3310959076905016e-01  6.3309555325401634e-01  6.3308031996790837e-01  6.3306407698622880e-01  6.3304702787492217e-01  6.3302938946984444e-01  6.3301138735368179e-01  6.3299325113711291e-01  6.3297520965891851e-01  6.3295748622407055e-01  6.3294029399919649e-01  6.3292383168111144e-01  6.3290827954649043e-01  6.3289379597962514e-01  6.3288051456115435e-01  6.3286854178434959e-01  6.3285795544765588e-01  6.3284880375333441e-01  6.3284110512275860e-01  6.3283484871964923e-01  6.3282999565379772e-01  6.3282648082013560e-01  6.3282421531192223e-01  6.3282308933287534e-01  6.3282297552175404e-01  6.3282373259459812e-01  6.3282520920479601e-01  6.3282724791954625e-01  6.3282968921310001e-01  6.3283237538229120e-01  6.3283515429796156e-01  6.3283788291637366e-01  6.3284043048677763e-01  6.3284268140401811e-01  6.3284453766743132e-01  6.3284592091843883e-01  6.3284677403852674e-01  6.3284706185830952e-01  6.3298588735190442e-01  6.3298655369974499e-01  6.3298854775458668e-01  6.3299181874253452e-01  6.3299628916692219e-01  6.3300185280078458e-01  6.3300837688997769e-01  6.3301570489643810e-01  6.3302365972072694e-01  6.3303204733496510e-01  6.3304066075120080e-01  6.3304928424576357e-01  6.3305769775692511e-01  6.3306568137098218e-01  6.3307301981065522e-01  6.3307950683953740e-01  6.3308494949733796e-01  6.3308917208298277e-01  6.3309201980636876e-01  6.3309336203480115e-01  6.3309309506688116e-01  6.3309114437479963e-01  6.3308746626546453e-01  6.3308204892144160e-01  6.3307491279405126e-01  6.3306611033295912e-01  6.3305572504916030e-01  6.3304386992141548e-01  6.3303068517002448e-01  6.3301633543623270e-01  6.3300100642034518e-01  6.3298490104631944e-01  6.3296823523465240e-01  6.3295123337807968e-01  6.3293412362522072e-01  6.3291713308512654e-01  6.3290048307013136e-01  6.3288438449508844e-01  6.3286903354781554e-01  6.3285460773849833e-01  6.3284126242520078e-01  6.3282912789904067e-01  6.3281830709663311e-01  6.3280887398973507e-01  6.3280087268325369e-01  6.3279431723343760e-01  6.3278919217867768e-01  6.3278545375641493e-01  6.3278303176175965e-01  6.3278183198714377e