<?xml version="1.0"?>
<VTKFile type="UnstructuredGrid"  version="0.1"  >
<UnstructuredGrid>
<Piece  NumberOfPoints="4225" NumberOfCells="8192">
<Points>
<DataArray  type="Float64"  NumberOfComponents="3"  format="ascii">0 0 0  0.015625 0 0  0.03125 0 0  0.046875 0 0  0.0625 0 0  0.078125 0 0  0.09375 0 0  0.109375 0 0  0.125 0 0  0.140625 0 0  0.15625 0 0  0.171875 0 0  0.1875 0 0  0.203125 0 0  0.21875 0 0  0.234375 0 0  0.25 0 0  0.265625 0 0  0.28125 0 0  0.296875 0 0  0.3125 0 0  0.328125 0 0  0.34375 0 0  0.359375 0 0  0.375 0 0  0.390625 0 0  0.40625 0 0  0.421875 0 0  0.4375 0 0  0.453125 0 0  0.46875 0 0  0.484375 0 0  0.5 0 0  0.515625 0 0  0.53125 0 0  0.546875 0 0  0.5625 0 0  0.578125 0 0  0.59375 0 0  0.609375 0 0  0.625 0 0  0.640625 0 0  0.65625 0 0  0.671875 0 0  0.6875 0 0  0.703125 0 0  0.71875 0 0  0.734375 0 0  0.75 0 0  0.765625 0 0  0.78125 0 0  0.796875 0 0  0.8125 0 0  0.828125 0 0  0.84375 0 0  0.859375 0 0  0.875 0 0  0.890625 0 0  0.90625 0 0  0.921875 0 0  0.9375 0 0  0.953125 0 0  0.96875 0 0  0.984375 0 0  1 0 0  0 0.015625 0  0.015625 0.015625 0  0.03125 0.015625 0  0.046875 0.015625 0  0.0625 0.015625 0  0.078125 0.015625 0  0.09375 0.015625 0  0.109375 0.015625 0  0.125 0.015625 0  0.140625 0.015625 0  0.15625 0.015625 0  0.171875 0.015625 0  0.1875 0.015625 0  0.203125 0.015625 0  0.21875 0.015625 0  0.234375 0.015625 0  0.25 0.015625 0  0.265625 0.015625 0  0.28125 0.015625 0  0.296875 0.015625 0  0.3125 0.015625 0  0.328125 0.015625 0  0.34375 0.015625 0  0.359375 0.015625 0  0.375 0.015625 0  0.390625 0.015625 0  0.40625 0.015625 0  0.421875 0.015625 0  0.4375 0.015625 0  0.453125 0.015625 0  0.46875 0.015625 0  0.484375 0.015625 0  0.5 0.015625 0  0.515625 0.015625 0  0.53125 0.015625 0  0.546875 0.015625 0  0.5625 0.015625 0  0.578125 0.015625 0  0.59375 0.015625 0  0.609375 0.015625 0  0.625 0.015625 0  0.640625 0.015625 0  0.65625 0.015625 0  0.671875 0.015625 0  0.6875 0.015625 0  0.703125 0.015625 0  0.71875 0.015625 0  0.734375 0.015625 0  0.75 0.015625 0  0.765625 0.015625 0  0.78125 0.015625 0  0.796875 0.015625 0  0.8125 0.015625 0  0.828125 0.015625 0  0.84375 0.015625 0  0.859375 0.015625 0  0.875 0.015625 0  0.890625 0.015625 0  0.90625 0.015625 0  0.921875 0.015625 0  0.9375 0.015625 0  0.953125 0.015625 0  0.96875 0.015625 0  0.984375 0.015625 0  1 0.015625 0  0 0.03125 0  0.015625 0.03125 0  0.03125 0.03125 0  0.046875 0.03125 0  0.0625 0.03125 0  0.078125 0.03125 0  0.09375 0.03125 0  0.109375 0.03125 0  0.125 0.03125 0  0.140625 0.03125 0  0.15625 0.03125 0  0.171875 0.03125 0  0.1875 0.03125 0  0.203125 0.03125 0  0.21875 0.03125 0  0.234375 0.03125 0  0.25 0.03125 0  0.265625 0.03125 0  0.28125 0.03125 0  0.296875 0.03125 0  0.3125 0.03125 0  0.328125 0.03125 0  0.34375 0.03125 0  0.359375 0.03125 0  0.375 0.03125 0  0.390625 0.03125 0  0.40625 0.03125 0  0.421875 0.03125 0  0.4375 0.03125 0  0.453125 0.03125 0  0.46875 0.03125 0  0.484375 0.03125 0  0.5 0.03125 0  0.515625 0.03125 0  0.53125 0.03125 0  0.546875 0.03125 0  0.5625 0.03125 0  0.578125 0.03125 0  0.59375 0.03125 0  0.609375 0.03125 0  0.625 0.03125 0  0.640625 0.03125 0  0.65625 0.03125 0  0.671875 0.03125 0  0.6875 0.03125 0  0.703125 0.03125 0  0.71875 0.03125 0  0.734375 0.03125 0  0.75 0.03125 0  0.765625 0.03125 0  0.78125 0.03125 0  0.796875 0.03125 0  0.8125 0.03125 0  0.828125 0.03125 0  0.84375 0.03125 0  0.859375 0.03125 0  0.875 0.03125 0  0.890625 0.03125 0  0.90625 0.03125 0  0.921875 0.03125 0  0.9375 0.03125 0  0.953125 0.03125 0  0.96875 0.03125 0  0.984375 0.03125 0  1 0.03125 0  0 0.046875 0  0.015625 0.046875 0  0.03125 0.046875 0  0.046875 0.046875 0  0.0625 0.046875 0  0.078125 0.046875 0  0.09375 0.046875 0  0.109375 0.046875 0  0.125 0.046875 0  0.140625 0.046875 0  0.15625 0.046875 0  0.171875 0.046875 0  0.1875 0.046875 0  0.203125 0.046875 0  0.21875 0.046875 0  0.234375 0.046875 0  0.25 0.046875 0  0.265625 0.046875 0  0.28125 0.046875 0  0.296875 0.046875 0  0.3125 0.046875 0  0.328125 0.046875 0  0.34375 0.046875 0  0.359375 0.046875 0  0.375 0.046875 0  0.390625 0.046875 0  0.40625 0.046875 0  0.421875 0.046875 0  0.4375 0.046875 0  0.453125 0.046875 0  0.46875 0.046875 0  0.484375 0.046875 0  0.5 0.046875 0  0.515625 0.046875 0  0.53125 0.046875 0  0.546875 0.046875 0  0.5625 0.046875 0  0.578125 0.046875 0  0.59375 0.046875 0  0.609375 0.046875 0  0.625 0.046875 0  0.640625 0.046875 0  0.65625 0.046875 0  0.671875 0.046875 0  0.6875 0.046875 0  0.703125 0.046875 0  0.71875 0.046875 0  0.734375 0.046875 0  0.75 0.046875 0  0.765625 0.046875 0  0.78125 0.046875 0  0.796875 0.046875 0  0.8125 0.046875 0  0.828125 0.046875 0  0.84375 0.046875 0  0.859375 0.046875 0  0.875 0.046875 0  0.890625 0.046875 0  0.90625 0.046875 0  0.921875 0.046875 0  0.9375 0.046875 0  0.953125 0.046875 0  0.96875 0.046875 0  0.984375 0.046875 0  1 0.046875 0  0 0.0625 0  0.015625 0.0625 0  0.03125 0.0625 0  0.046875 0.0625 0  0.0625 0.0625 0  0.078125 0.0625 0  0.09375 0.0625 0  0.109375 0.0625 0  0.125 0.0625 0  0.140625 0.0625 0  0.15625 0.0625 0  0.171875 0.0625 0  0.1875 0.0625 0  0.203125 0.0625 0  0.21875 0.0625 0  0.234375 0.0625 0  0.25 0.0625 0  0.265625 0.0625 0  0.28125 0.0625 0  0.296875 0.0625 0  0.3125 0.0625 0  0.328125 0.0625 0  0.34375 0.0625 0  0.359375 0.0625 0  0.375 0.0625 0  0.390625 0.0625 0  0.40625 0.0625 0  0.421875 0.0625 0  0.4375 0.0625 0  0.453125 0.0625 0  0.46875 0.0625 0  0.484375 0.0625 0  0.5 0.0625 0  0.515625 0.0625 0  0.53125 0.0625 0  0.546875 0.0625 0  0.5625 0.0625 0  0.578125 0.0625 0  0.59375 0.0625 0  0.609375 0.0625 0  0.625 0.0625 0  0.640625 0.0625 0  0.65625 0.0625 0  0.671875 0.0625 0  0.6875 0.0625 0  0.703125 0.0625 0  0.71875 0.0625 0  0.734375 0.0625 0  0.75 0.0625 0  0.765625 0.0625 0  0.78125 0.0625 0  0.796875 0.0625 0  0.8125 0.0625 0  0.828125 0.0625 0  0.84375 0.0625 0  0.859375 0.0625 0  0.875 0.0625 0  0.890625 0.0625 0  0.90625 0.0625 0  0.921875 0.0625 0  0.9375 0.0625 0  0.953125 0.0625 0  0.96875 0.0625 0  0.984375 0.0625 0  1 0.0625 0  0 0.078125 0  0.015625 0.078125 0  0.03125 0.078125 0  0.046875 0.078125 0  0.0625 0.078125 0  0.078125 0.078125 0  0.09375 0.078125 0  0.109375 0.078125 0  0.125 0.078125 0  0.140625 0.078125 0  0.15625 0.078125 0  0.171875 0.078125 0  0.1875 0.078125 0  0.203125 0.078125 0  0.21875 0.078125 0  0.234375 0.078125 0  0.25 0.078125 0  0.265625 0.078125 0  0.28125 0.078125 0  0.296875 0.078125 0  0.3125 0.078125 0  0.328125 0.078125 0  0.34375 0.078125 0  0.359375 0.078125 0  0.375 0.078125 0  0.390625 0.078125 0  0.40625 0.078125 0  0.421875 0.078125 0  0.4375 0.078125 0  0.453125 0.078125 0  0.46875 0.078125 0  0.484375 0.078125 0  0.5 0.078125 0  0.515625 0.078125 0  0.53125 0.078125 0  0.546875 0.078125 0  0.5625 0.078125 0  0.578125 0.078125 0  0.59375 0.078125 0  0.609375 0.078125 0  0.625 0.078125 0  0.640625 0.078125 0  0.65625 0.078125 0  0.671875 0.078125 0  0.6875 0.078125 0  0.703125 0.078125 0  0.71875 0.078125 0  0.734375 0.078125 0  0.75 0.078125 0  0.765625 0.078125 0  0.78125 0.078125 0  0.796875 0.078125 0  0.8125 0.078125 0  0.828125 0.078125 0  0.84375 0.078125 0  0.859375 0.078125 0  0.875 0.078125 0  0.890625 0.078125 0  0.90625 0.078125 0  0.921875 0.078125 0  0.9375 0.078125 0  0.953125 0.078125 0  0.96875 0.078125 0  0.984375 0.078125 0  1 0.078125 0  0 0.09375 0  0.015625 0.09375 0  0.03125 0.09375 0  0.046875 0.09375 0  0.0625 0.09375 0  0.078125 0.09375 0  0.09375 0.09375 0  0.109375 0.09375 0  0.125 0.09375 0  0.140625 0.09375 0  0.15625 0.09375 0  0.171875 0.09375 0  0.1875 0.09375 0  0.203125 0.09375 0  0.21875 0.09375 0  0.234375 0.09375 0  0.25 0.09375 0  0.265625 0.09375 0  0.28125 0.09375 0  0.296875 0.09375 0  0.3125 0.09375 0  0.328125 0.09375 0  0.34375 0.09375 0  0.359375 0.09375 0  0.375 0.09375 0  0.390625 0.09375 0  0.40625 0.09375 0  0.421875 0.09375 0  0.4375 0.09375 0  0.453125 0.09375 0  0.46875 0.09375 0  0.484375 0.09375 0  0.5 0.09375 0  0.515625 0.09375 0  0.53125 0.09375 0  0.546875 0.09375 0  0.5625 0.09375 0  0.578125 0.09375 0  0.59375 0.09375 0  0.609375 0.09375 0  0.625 0.09375 0  0.640625 0.09375 0  0.65625 0.09375 0  0.671875 0.09375 0  0.6875 0.09375 0  0.703125 0.09375 0  0.71875 0.09375 0  0.734375 0.09375 0  0.75 0.09375 0  0.765625 0.09375 0  0.78125 0.09375 0  0.796875 0.09375 0  0.8125 0.09375 0  0.828125 0.09375 0  0.84375 0.09375 0  0.859375 0.09375 0  0.875 0.09375 0  0.890625 0.09375 0  0.90625 0.09375 0  0.921875 0.09375 0  0.9375 0.09375 0  0.953125 0.09375 0  0.96875 0.09375 0  0.984375 0.09375 0  1 0.09375 0  0 0.109375 0  0.015625 0.109375 0  0.03125 0.109375 0  0.046875 0.109375 0  0.0625 0.109375 0  0.078125 0.109375 0  0.09375 0.109375 0  0.109375 0.109375 0  0.125 0.109375 0  0.140625 0.109375 0  0.15625 0.109375 0  0.171875 0.109375 0  0.1875 0.109375 0  0.203125 0.109375 0  0.21875 0.109375 0  0.234375 0.109375 0  0.25 0.109375 0  0.265625 0.109375 0  0.28125 0.109375 0  0.296875 0.109375 0  0.3125 0.109375 0  0.328125 0.109375 0  0.34375 0.109375 0  0.359375 0.109375 0  0.375 0.109375 0  0.390625 0.109375 0  0.40625 0.109375 0  0.421875 0.109375 0  0.4375 0.109375 0  0.453125 0.109375 0  0.46875 0.109375 0  0.484375 0.109375 0  0.5 0.109375 0  0.515625 0.109375 0  0.53125 0.109375 0  0.546875 0.109375 0  0.5625 0.109375 0  0.578125 0.109375 0  0.59375 0.109375 0  0.609375 0.109375 0  0.625 0.109375 0  0.640625 0.109375 0  0.65625 0.109375 0  0.671875 0.109375 0  0.6875 0.109375 0  0.703125 0.109375 0  0.71875 0.109375 0  0.734375 0.109375 0  0.75 0.109375 0  0.765625 0.109375 0  0.78125 0.109375 0  0.796875 0.109375 0  0.8125 0.109375 0  0.828125 0.109375 0  0.84375 0.109375 0  0.859375 0.109375 0  0.875 0.109375 0  0.890625 0.109375 0  0.90625 0.109375 0  0.921875 0.109375 0  0.9375 0.109375 0  0.953125 0.109375 0  0.96875 0.109375 0  0.984375 0.109375 0  1 0.109375 0  0 0.125 0  0.015625 0.125 0  0.03125 0.125 0  0.046875 0.125 0  0.0625 0.125 0  0.078125 0.125 0  0.09375 0.125 0  0.109375 0.125 0  0.125 0.12
[...]
<PointData  Scalars="f_12"> 
<DataArray  type="Float64"  Name="f_12"  format="ascii">6.3201935382818186e-01  6.3201935420954392e-01  6.3201935535279219e-01  6.3201935725515679e-01  6.3201935991205360e-01  6.3201936331708164e-01  6.3201936746203768e-01  6.3201937233693639e-01  6.3201937793003382e-01  6.3201938422785575e-01  6.3201939121523032e-01  6.3201939887532466e-01  6.3201940718968508e-01  6.3201941613828194e-01  6.3201942569955738e-01  6.3201943585047782e-01  6.3201944656658915e-01  6.3201945782207536e-01  6.3201946958982147e-01  6.3201948184147838e-01  6.3201949454753070e-01  6.3201950767736892e-01  6.3201952119936233e-01  6.3201953508093556e-01  6.3201954928864690e-01  6.3201956378826885e-01  6.3201957854487101e-01  6.3201959352290327e-01  6.3201960868628249e-01  6.3201962399847900e-01  6.3201963942260453e-01  6.3201965492150092e-01  6.3201967045783003e-01  6.3201968599416347e-01  6.3201970149307296e-01  6.3201971691722036e-01  6.3201973222944718e-01  6.3201974739286504e-01  6.3201976237094371e-01  6.3201977712759960e-01  6.3201979162728239e-01  6.3201980583506112e-01  6.3201981971670773e-01  6.3201983323877953e-01  6.3201984636870079e-01  6.3201985907484015e-01  6.3201987132658688e-01  6.3201988309442536e-01  6.3201989435000561e-01  6.3201990506621153e-01  6.3201991521722645e-01  6.3201992477859570e-01  6.3201993372728460e-01  6.3201994204173484e-01  6.3201994970191577e-01  6.3201995668937305e-01  6.3201996298727336e-01  6.3201996858044396e-01  6.3201997345541017e-01  6.3201997760042750e-01  6.3201998100551005e-01  6.3201998366245427e-01  6.3201998556485828e-01  6.3201998670813753e-01  6.3201998708951335e-01  6.3201935225093420e-01  6.3201935263229014e-01  6.3201935377557872e-01  6.3201935567800083e-01  6.3201935833497291e-01  6.3201936174009410e-01  6.3201936588516106e-01  6.3201937076018799e-01  6.3201937635343064e-01  6.3201938265141466e-01  6.3201938963896775e-01  6.3201939729925660e-01  6.3201940561382708e-01  6.3201941456264876e-01  6.3201942412416356e-01  6.3201943427533724e-01  6.3201944499171492e-01  6.3201945624748035e-01  6.3201946801551756e-01  6.3201948026747667e-01  6.3201949297384186e-01  6.3201950610400259e-01  6.3201951962632763e-01  6.3201953350824058e-01  6.3201954771629887e-01  6.3201956221627453e-01  6.3201957697323596e-01  6.3201959195163238e-01  6.3201960711537963e-01  6.3201962242794729e-01  6.3201963785244597e-01  6.3201965335171684e-01  6.3201966888842076e-01  6.3201968442512868e-01  6.3201969992441098e-01  6.3201971534892876e-01  6.3201973066152295e-01  6.3201974582530385e-01  6.3201976080374067e-01  6.3201977556074895e-01  6.3201979006077724e-01  6.3201980426889393e-01  6.3201981815087005e-01  6.3201983167326248e-01  6.3201984480349438e-01  6.3201985750993350e-01  6.3201986976196889e-01  6.3201988153008370e-01  6.3201989278592752e-01  6.3201990350238368e-01  6.3201991365363486e-01  6.3201992321522582e-01  6.3201993216412133e-01  6.3201994047876253e-01  6.3201994813911844e-01  6.3201995512673426e-01  6.3201996142477612e-01  6.3201996701807117e-01  6.3201997189314418e-01  6.3201997603825077e-01  6.3201997944340449e-01  6.3201998210040200e-01  6.3201998400284154e-01  6.3201998514613933e-01  6.3201998552749883e-01  6.3201934752295419e-01  6.3201934790429160e-01  6.3201934904766488e-01  6.3201935095022532e-01  6.3201935360738981e-01  6.3201935701275735e-01  6.3201936115812385e-01  6.3201936603350317e-01  6.3201937162715005e-01  6.3201937792558927e-01  6.3201938491364729e-01  6.3201939257448969e-01  6.3201940088966102e-01  6.3201940983912941e-01  6.3201941940133510e-01  6.3201942955324231e-01  6.3201944027039447e-01  6.3201945152697325e-01  6.3201946329586078e-01  6.3201947554870530e-01  6.3201948825598864e-01  6.3201950138709828e-01  6.3201951491040043e-01  6.3201952879331669e-01  6.3201954300240182e-01  6.3201955750342520e-01  6.3201957226145289e-01  6.3201958724093177e-01  6.3201960240577504e-01  6.3201961771944926e-01  6.3201963314506271e-01  6.3201964864545357e-01  6.3201966418328048e-01  6.3201967972111106e-01  6.3201969522151369e-01  6.3201971064714613e-01  6.3201972596084699e-01  6.3201974112572390e-01  6.3201975610524319e-01  6.3201977086331784e-01  6.3201978536439429e-01  6.3201979957353793e-01  6.3201981345651725e-01  6.3201982697988701e-01  6.3201984011106793e-01  6.3201985281842543e-01  6.3201986507134633e-01  6.3201987684031180e-01  6.3201988809696907e-01  6.3201989881419973e-01  6.3201990896618487e-01  6.3201991852846684e-01  6.3201992747800917e-01  6.3201993579325144e-01  6.3201994345416102e-01  6.3201995044228199e-01  6.3201995674077904e-01  6.3201996233447844e-01  6.3201996720990405e-01  6.3201997135531041e-01  6.3201997476071070e-01  6.3201997741790084e-01  6.3201997932047926e-01  6.3201998046386310e-01  6.3201998084520572e-01  6.3201933965561763e-01  6.3201934003695392e-01  6.3201934118046554e-01  6.3201934308325536e-01  6.3201934574073992e-01  6.3201934914651714e-01  6.3201935329238235e-01  6.3201935816834787e-01  6.3201936376266754e-01  6.3201937006186393e-01  6.3201937705076228e-01  6.3201938471252561e-01  6.3201939302869670e-01  6.3201940197924111e-01  6.3201941154259667e-01  6.3201942169572445e-01  6.3201943241416514e-01  6.3201944367209750e-01  6.3201945544240012e-01  6.3201946769671780e-01  6.3201948040552902e-01  6.3201949353821762e-01  6.3201950706314580e-01  6.3201952094773117e-01  6.3201953515852483e-01  6.3201954966129203e-01  6.3201956442109430e-01  6.3201957940237430e-01  6.3201959456904100e-01  6.3201960988455663e-01  6.3201962531202482e-01  6.3201964081427964e-01  6.3201965635397483e-01  6.3201967189367392e-01  6.3201968739594039e-01  6.3201970282342790e-01  6.3201971813897007e-01  6.3201973330567063e-01  6.3201974828699137e-01  6.3201976304684071e-01  6.3201977754966088e-01  6.3201979176051315e-01  6.3201980564516202e-01  6.3201981917015804e-01  6.3201983230291814e-01  6.3201984501180375e-01  6.3201985726619803e-01  6.3201986903657892e-01  6.3201988029459000e-01  6.3201989101310951e-01  6.3201990116631557e-01  6.3201991072974750e-01  6.3201991968036630e-01  6.3201992799660844e-01  6.3201993565843950e-01  6.3201994264740091e-01  6.3201994894665559e-01  6.3201995454102777e-01  6.3201995941704003e-01  6.3201996356294521e-01  6.3201996696875551e-01  6.3201996962626583e-01  6.3201997152907419e-01  6.3201997267259691e-01  6.3201997305393964e-01  6.3201932866787836e-01  6.3201932904923197e-01  6.3201933019293610e-01  6.3201933209604588e-01  6.3201933475397687e-01  6.3201933816032618e-01  6.3201934230688761e-01  6.3201934718367192e-01  6.3201935277893095e-01  6.3201935907918516e-01  6.3201936606925690e-01  6.3201937373230677e-01  6.3201938204987407e-01  6.3201939100192150e-01  6.3201940056688266e-01  6.3201941072171530e-01  6.3201942144195566e-01  6.3201943270177818e-01  6.3201944447405711e-01  6.3201945673043247e-01  6.3201946944137755e-01  6.3201948257627116e-01  6.3201949610347030e-01  6.3201950999038714e-01  6.3201952420356700e-01  6.3201953870876937e-01  6.3201955347104988e-01  6.3201956845484553e-01  6.3201958362405897e-01  6.3201959894214621e-01  6.3201961437220500e-01  6.3201962987706295e-01  6.3201964541936761e-01  6.3201966096167617e-01  6.3201967646654567e-01  6.3201969189662388e-01  6.3201970721473799e-01  6.3201972238398529e-01  6.3201973736782180e-01  6.3201975213014983e-01  6.3201976663540549e-01  6.3201978084864419e-01  6.3201979473562475e-01  6.3201980826289206e-01  6.3201982139785740e-01  6.3201983410887741e-01  6.3201984636532971e-01  6.3201985813768724e-01  6.3201986939758892e-01  6.3201988011790855e-01  6.3201989027281968e-01  6.3201989983785767e-01  6.3201990878997971e-01  6.3201991710761862e-01  6.3201992477073643e-01  6.3201993176087179e-01  6.3201993806118439e-01  6.3201994365649639e-01  6.3201994853332755e-01  6.3201995267992939e-01  6.3201995608631212e-01  6.3201995874426931e-01  6.3201996064739796e-01  6.3201996179111330e-01  6.3201996217247447e-01  6.3201931458620941e-01  6.3201931496759878e-01  6.3201931611154916e-01  6.3201931801506872e-01  6.3201932067357181e-01  6.3201932408065409e-01  6.3201932822810791e-01  6.3201933310594149e-01  6.3201933870240445e-01  6.3201934500401402e-01  6.3201935199558978e-01  6.3201935966028833e-01  6.3201936797964520e-01  6.3201937693361843e-01  6.3201938650063760e-01  6.3201939665765494e-01  6.3201940738020179e-01  6.3201941864244682e-01  6.3201943041725861e-01  6.3201944267627075e-01  6.3201945538995075e-01  6.3201946852767033e-01  6.3201948205777991e-01  6.3201949594768458e-01  6.3201951016392244e-01  6.3201952467224565e-01  6.3201953943770250e-01  6.3201955442472191e-01  6.3201956959719907e-01  6.3201958491858234e-01  6.3201960035196114e-01  6.3201961586015520e-01  6.3201963140580408e-01  6.3201964695145674e-01  6.3201966245966246e-01  6.3201967789306068e-01  6.3201969321447082e-01  6.3201970838698218e-01  6.3201972337404277e-01  6.3201973813954726e-01  6.3201975264792432e-01  6.3201976686422134e-01  6.3201978075419007e-01  6.3201979428436816e-01  6.3201980742216002e-01  6.3201982013591529e-01  6.3201983239500492e-01  6.3201984416989576e-01  6.3201985543222050e-01  6.3201986615484707e-01  6.3201987631194345e-01  6.3201988587903990e-01  6.3201989483308829e-01  6.3201990315251710e-01  6.3201991081728404e-01  6.3201991780892364e-01  6.3201992411059227e-01  6.3201992970710841e-01  6.3201993458498951e-01  6.3201993873248385e-01  6.3201994213960000e-01  6.3201994479812951e-01  6.3201994670166817e-01  6.3201994784563009e-01  6.3201994822702767e-01  6.3201929744453855e-01  6.3201929782598187e-01  6.3201929897023190e-01  6.3201930087425007e-01  6.3201930353344948e-01  6.3201930694142405e-01  6.3201931108996379e-01  6.3201931596907490e-01  6.3201932156700313e-01  6.3201932787026283e-01  6.3201933486366924e-01  6.3201934253037484e-01  6.3201935085191008e-01  6.3201935980822788e-01  6.3201936937775194e-01  6.3201937953742893e-01  6.3201939026278331e-01  6.3201940152797720e-01  6.3201941330587219e-01  6.3201942556809443e-01  6.3201943828510343e-01  6.3201945142626303e-01  6.3201946495991546e-01  6.3201947885345733e-01  6.3201949307341765e-01  6.3201950758553982e-01  6.3201952235486314e-01  6.3201953734580707e-01  6.3201955252225739e-01  6.3201956784765256e-01  6.3201958328507279e-01  6.3201959879732783e-01  6.3201961434704756e-01  6.3201962989677118e-01  6.3201964540903810e-01  6.3201966084647787e-01  6.3201967617190014e-01  6.3201969134838487e-01  6.3201970633937010e-01  6.3201972110874161e-01  6.3201973562091796e-01  6.3201974984093801e-01  6.3201976373454427e-01  6.3201977726826575e-01  6.3201979040949818e-01  6.3201980312658301e-01  6.3201981538888319e-01  6.3201982716685778e-01  6.3201983843213205e-01  6.3201984915756682e-01  6.3201985931732330e-01  6.3201986888692552e-01  6.3201987784331892e-01  6.3201988616492666e-01  6.3201989383170110e-01  6.3201990082517190e-01  6.3201990712849099e-01  6.3201991272647318e-01  6.3201991760563181e-01  6.3201992175421273e-01  6.3201992516222139e-01  6.3201992782144767e-01  6.3201992972548504e-01  6.3201993086974673e-01  6.3201993125119937e-01  6.3201927728416585e-01  6.3201927766568122e-01  6.3201927881028375e-01  6.3201928071488811e-01  6.3201928337490632e-01  6.3201928678393027e-01  6.3201929093374742e-01  6.3201929581436067e-01  6.3201930141401241e-01  6.3201930771921278e-01  6.3201931471477224e-01  6.3201932238383807e-01  6.3201933070793537e-01  6.3201933966701052e-01  6.3201934923948078e-01  6.3201935940228560e-01  6.3201937013094200e-01  6.3201938139960423e-01  6.3201939318112532e-01  6.3201940544712265e-01  6.3201941816804696e-01  6.3201943131325256e-01  6.3201944485107164e-01  6.3201945874889098e-01  6.3201947297322958e-01  6.3201948748981984e-01  6.3201950226369041e-01  6.3201951725924987e-01  6.3201953244037279e-01  6.3201954777048663e-01  6.3201956321265995e-01  6.3201957872969128e-01  6.3201959428419874e-01  6.3201960983871008e-01  6.3201962535575329e-01  6.3201964079794637e-01  6.3201965612808753e-01  6.3201967130924519e-01  6.3201968630484640e-01  6.3201970107876537e-01  6.3201971559541037e-01  6.3201972981980903e-01  6.3201974371769354e-01  6.3201975725558224e-01  6.3201977040086121e-01  6.3201978312186191e-01  6.3201979538793818e-01  6.3201980716953943e-01  6.3201981843828270e-01  6.3201982916702026e-01  6.3201983932990524e-01  6.3201984890245422e-01  6.3201985786160564e-01  6.3201986618577610e-01  6.3201987385491143e-01  6.3201988085053595e-01  6.3201988715579627e-01  6.3201989275550230e-01  6.3201989763616373e-01  6.3201990178602230e-01  6.3201990519508078e-01  6.3201990785512607e-01  6.3201990975974998e-01  6.3201991090436438e-01  6.3201991128588997e-01  6.3201925415366422e-01  6.3201925453527008e-01  6.3201925568027673e-01  6.3201925758555388e-01  6.3201926024651156e-01  6.3201926365673922e-01  6.3201926780802187e-01  6.3201927269035851e-01  6.3201927829198767e-01  6.3201928459941459e-01  6.3201929159744430e-01  6.3201929926921829e-01  6.3201930759625480e-01  6.3201931655849364e-01  6.3201932613434408e-01  6.3201933630073759e-01  6.3201934703318252e-01  6.3201935830582390e-01  6.3201937009150522e-01  6.3201938236183408e-01  6.3201939508725047e-01  6.3201940823709790e-01  6.3201942177969772e-01  6.3201943568242469e-01  6.3201944991178638e-01  6.3201946443350299e-01  6.3201947921259072e-01  6.3201949421344572e-01  6.3201950939992979e-01  6.3201952473545742e-01  6.3201954018308404e-01  6.3201955570559520e-01  6.3201957126559571e-01  6.3201958682560011e-01  6.3201960234812327e-01  6.3201961779576998e-01  6.3201963313132514e-01  6.3201964831784418e-01  6.3201966331874138e-01  6.3201967809787807e-01  6.3201969261964974e-01  6.3201970684907216e-01  6.3201972075186508e-01  6.3201973429453506e-01  6.3201974744445666e-01  6.3201976016995021e-01  6.3201977244035856e-01  6.3201978422612104e-01  6.3201979549884435e-01  6.3201980623137111e-01  6.3201981639784566e-01  6.3201982597377560e-01  6.3201983493609148e-01  6.3201984326320193e-01  6.3201985093504609e-01  6.3201985793314164e-01  6.3201986424062895e-01  6.3201986984231295e-01  6.3201987472469823e-01  6.3201987887602284e-01  6.3201988228628536e-01  6.3201988494727046e-01  6.3201988685256738e-01  6.3201988799758602e-01  6.3201988837920298e-01  6.3201922810876332e-01  6.3201922849047731e-01  6.3201922963593926e-01  6.3201923154197359e-01  6.3201923420398898e-01  6.3201923761557233e-01  6.3201924176850477e-01  6.3201924665278220e-01  6.3201925225663780e-01  6.3201925856657182e-01  6.3201926556738286e-01  6.3201927324220619e-01  6.3201928157255238e-01  6.3201929053835348e-01  6.3201930011801000e-01  6.3201931028844427e-01  6.3201932102515512e-01  6.3201933230227703e-01  6.3201934409264282e-01  6.3201935636784889e-01  6.3201936909832324e-01  6.3201938225339760e-01  6.3201939580138022e-01  6.3201940970963344e-01  6.3201942394465094e-01  6.3201943847213982e-01  6.3201945325710218e-01  6.3201946826391986e-01  6.3201948345644043e-01  6.3201949879806385e-01  6.3201951425183100e-01  6.3201952978051235e-01  6.3201954534669813e-01  6.3201956091288780e-01  6.3201957644158147e-01  6.3201959189536860e-01  6.3201960723702011e-01  6.3201962242957599e-01  6.3201963743643641e-01  6.3201965222144807e-01  6.3201966674899268e-01  6.3201968098407157e-01  6.3201969489239129e-01  6.3201970844044508e-01  6.3201972159559416e-01  6.3201973432614666e-01  6.3201974660143312e-01  6.3201975839188085e-01  6.3201976966908557e-01  6.3201978040587914e-01  6.3201979057639535e-01  6.3201980015613224e-01  6.3201980912201128e-01  6.3201981745243230e-01  6.3201982512732646e-01  6.3201983212820423e-01  6.3201983843819931e-01  6.3201984404211031e-01  6.3201984892643681e-01  6.3201985307941189e-01  6.3201985649103054e-01  6.3201985915307357e-01  6.3201986105912800e-01  6.3201986220460193e-01  6.3201986258632814e-01  6.3201919921221394e-01  6.3201919959405373e-01  6.3201920074002060e-01  6.3201920264689537e-01  6.3201920531008404e-01  6.3201920872317119e-01  6.3201921287793450e-01  6.3201921776436476e-01  6.3201922337069072e-01  6.3201922968340607e-01  6.3201923668730331e-01  6.3201924436550971e-01  6.3201925269952808e-01  6.3201926166928124e-01  6.3201927125316071e-01  6.3201928142807817e-01  6.3201929216952180e-01  6.3201930345161494e-01  6.3201931524717803e-01  6.3201932752779511e-01  6.3201934026388151e-01  6.3201935342475479e-01  6.3201936697870975e-01  6.3201938089309406e-01  6.3201939513438687e-01  6.3201940966827985e-01  6.3201942445975989e-01  6.3201943947319328e-01  6.3201945467241127e-01  6.3201947002079795e-01  6.3201948548137787e-01  6.3201950101690507e-01  6.3201951658995315e-01  6.3201953216300533e-01  6.3201954769854474e-01  6.3201956315914498e-01  6.3201957850755996e-01  6.3201959370681393e-01  6.3201960872029039e-01  6.3201962351182039e-01  6.3201963804576977e-01  6.3201965228712476e-01  6.3201966620157635e-01  6.3201967975560325e-01  6.3201969291655236e-01  6.3201970565271759e-01  6.3201971793341605e-01  6.3201972972906217e-01  6.3201974101123903e-01  6.3201975175276648e-01  6.3201976192776688e-01  6.3201977151172761e-01  6.3201978048155960e-01  6.3201978881565368e-01  6.3201979649393192e-01  6.3201980349789633e-01  6.3201980981067374e-01  6.3201981541705576e-01  6.3201982030353587e-01  6.3201982445834215e-01  6.3201982787146516e-01  6.3201983053468203e-01  6.3201983244157700e-01  6.3201983358755598e-01  6.3201983396940886e-01  6.3201916753363718e-01  6.3201916791562029e-01  6.3201916906214062e-01  6.3201917096993643e-01  6.3201917363441162e-01  6.3201917704914734e-01  6.3201918120591760e-01  6.3201918609470820e-01  6.3201919170374221e-01  6.3201919801950679e-01  6.3201920502678710e-01  6.3201921270870232e-01  6.3201922104674624e-01  6.3201923002083216e-01  6.3201923960934092e-01  6.3201924978917334e-01  6.3201926053580548e-01  6.3201927182334827e-01  6.3201928362460924e-01  6.3201929591115835e-01  6.3201930865339673e-01  6.3201932182062726e-01  6.3201933538112964e-01  6.3201934930223524e-01  6.3201936355040733e-01  6.3201937809132114e-01  6.3201939288994646e-01  6.3201940791063227e-01  6.3201942311719261e-01  6.3201943847299369e-01  6.3201945394104209e-01  6.3201946948407406e-01  6.3201948506464511e-01  6.3201950064522061e-01  6.3201951618826502e-01  6.3201953165633407e-01  6.3201954701216378e-01  6.3201956221876054e-01  6.3201957723948998e-01  6.3201959203816582e-01  6.3201960657913658e-01  6.3201962082737173e-01  6.3201963474854561e-01  6.3201964830912061e-01  6.3201966147642807e-01  6.3201967421874639e-01  6.3201968650537799e-01  6.3201969830672289e-01  6.3201970959435050e-01  6.3201972034106757e-01  6.3201973052098392e-01  6.3201974010957496e-01  6.3201974908374070e-01  6.3201975742186134e-01  6.3201976510384938e-01  6.3201977211119775e-01  6.3201977842702528e-01  6.3201978403611603e-01  6.3201978892495725e-01  6.3201979308177092e-01  6.3201979649654294e-01  6.3201979916104678e-01  6.3201980106886313e-01  6.3201980221539589e-01  6.3201980259739265e-01  6.3201913314935732e-01  6.3201913353150041e-01  6.3201913467862170e-01  6.3201913658741715e-01  6.3201913925328868e-01  6.3201914266981396e-01  6.3201914682876248e-01  6.3201915172011502e-01  6.3201915733208813e-01  6.3201916365116240e-01  6.3201917066211488e-01  6.3201917834805565e-01  6.3201918669046897e-01  6.3201919566925746e-01  6.3201920526279098e-01  6.3201921544795803e-01  6.3201922620022188e-01  6.3201923749367972e-01  6.3201924930112496e-01  6.3201926159411292e-01  6.3201927434302885e-01  6.3201928751715974e-01  6.3201930108476834e-01  6.3201931501316955e-01  6.3201932926880855e-01  6.3201934381734259e-01  6.3201935862372338e-01  6.3201937365228100e-01  6.3201938886681064e-01  6.3201940423065939e-01  6.3201941970681430e-01  6.3201943525799220e-01  6.3201945084672884e-01  6.3201946643546980e-01  6.3201948198666025e-01  6.3201949746283614e-01  6.3201951282671387e-01  6.3201952804128037e-01  6.3201954306988228e-01  6.3201955787631436e-01  6.3201957242490625e-01  6.3201958668060909e-01  6.3201960060907936e-01  6.3201961417676189e-01  6.3201962735097061e-01  6.3201964009996758e-01  6.3201965239303903e-01  6.3201966420056943e-01  6.3201967549411342e-01  6.3201968624646321e