<?xml version="1.0"?>
<VTKFile type="UnstructuredGrid"  version="0.1"  >
<UnstructuredGrid>
<Piece  NumberOfPoints="4225" NumberOfCells="8192">
<Points>
<DataArray  type="Float64"  NumberOfComponents="3"  format="ascii">0 0 0  0.015625 0 0  0.03125 0 0  0.046875 0 0  0.0625 0 0  0.078125 0 0  0.09375 0 0  0.109375 0 0  0.125 0 0  0.140625 0 0  0.15625 0 0  0.171875 0 0  0.1875 0 0  0.203125 0 0  0.21875 0 0  0.234375 0 0  0.25 0 0  0.265625 0 0  0.28125 0 0  0.296875 0 0  0.3125 0 0  0.328125 0 0  0.34375 0 0  0.359375 0 0  0.375 0 0  0.390625 0 0  0.40625 0 0  0.421875 0 0  0.4375 0 0  0.453125 0 0  0.46875 0 0  0.484375 0 0  0.5 0 0  0.515625 0 0  0.53125 0 0  0.546875 0 0  0.5625 0 0  0.578125 0 0  0.59375 0 0  0.609375 0 0  0.625 0 0  0.640625 0 0  0.65625 0 0  0.671875 0 0  0.6875 0 0  0.703125 0 0  0.71875 0 0  0.734375 0 0  0.75 0 0  0.765625 0 0  0.78125 0 0  0.796875 0 0  0.8125 0 0  0.828125 0 0  0.84375 0 0  0.859375 0 0  0.875 0 0  0.890625 0 0  0.90625 0 0  0.921875 0 0  0.9375 0 0  0.953125 0 0  0.96875 0 0  0.984375 0 0  1 0 0  0 0.015625 0  0.015625 0.015625 0  0.03125 0.015625 0  0.046875 0.015625 0  0.0625 0.015625 0  0.078125 0.015625 0  0.09375 0.015625 0  0.109375 0.015625 0  0.125 0.015625 0  0.140625 0.015625 0  0.15625 0.015625 0  0.171875 0.015625 0  0.1875 0.015625 0  0.203125 0.015625 0  0.21875 0.015625 0  0.234375 0.015625 0  0.25 0.015625 0  0.265625 0.015625 0  0.28125 0.015625 0  0.296875 0.015625 0  0.3125 0.015625 0  0.328125 0.015625 0  0.34375 0.015625 0  0.359375 0.015625 0  0.375 0.015625 0  0.390625 0.015625 0  0.40625 0.015625 0  0.421875 0.015625 0  0.4375 0.015625 0  0.453125 0.015625 0  0.46875 0.015625 0  0.484375 0.015625 0  0.5 0.015625 0  0.515625 0.015625 0  0.53125 0.015625 0  0.546875 0.015625 0  0.5625 0.015625 0  0.578125 0.015625 0  0.59375 0.015625 0  0.609375 0.015625 0  0.625 0.015625 0  0.640625 0.015625 0  0.65625 0.015625 0  0.671875 0.015625 0  0.6875 0.015625 0  0.703125 0.015625 0  0.71875 0.015625 0  0.734375 0.015625 0  0.75 0.015625 0  0.765625 0.015625 0  0.78125 0.015625 0  0.796875 0.015625 0  0.8125 0.015625 0  0.828125 0.015625 0  0.84375 0.015625 0  0.859375 0.015625 0  0.875 0.015625 0  0.890625 0.015625 0  0.90625 0.015625 0  0.921875 0.015625 0  0.9375 0.015625 0  0.953125 0.015625 0  0.96875 0.015625 0  0.984375 0.015625 0  1 0.015625 0  0 0.03125 0  0.015625 0.03125 0  0.03125 0.03125 0  0.046875 0.03125 0  0.0625 0.03125 0  0.078125 0.03125 0  0.09375 0.03125 0  0.109375 0.03125 0  0.125 0.03125 0  0.140625 0.03125 0  0.15625 0.03125 0  0.171875 0.03125 0  0.1875 0.03125 0  0.203125 0.03125 0  0.21875 0.03125 0  0.234375 0.03125 0  0.25 0.03125 0  0.265625 0.03125 0  0.28125 0.03125 0  0.296875 0.03125 0  0.3125 0.03125 0  0.328125 0.03125 0  0.34375 0.03125 0  0.359375 0.03125 0  0.375 0.03125 0  0.390625 0.03125 0  0.40625 0.03125 0  0.421875 0.03125 0  0.4375 0.03125 0  0.453125 0.03125 0  0.46875 0.03125 0  0.484375 0.03125 0  0.5 0.03125 0  0.515625 0.03125 0  0.53125 0.03125 0  0.546875 0.03125 0  0.5625 0.03125 0  0.578125 0.03125 0  0.59375 0.03125 0  0.609375 0.03125 0  0.625 0.03125 0  0.640625 0.03125 0  0.65625 0.03125 0  0.671875 0.03125 0  0.6875 0.03125 0  0.703125 0.03125 0  0.71875 0.03125 0  0.734375 0.03125 0  0.75 0.03125 0  0.765625 0.03125 0  0.78125 0.03125 0  0.796875 0.03125 0  0.8125 0.03125 0  0.828125 0.03125 0  0.84375 0.03125 0  0.859375 0.03125 0  0.875 0.03125 0  0.890625 0.03125 0  0.90625 0.03125 0  0.921875 0.03125 0  0.9375 0.03125 0  0.953125 0.03125 0  0.96875 0.03125 0  0.984375 0.03125 0  1 0.03125 0  0 0.046875 0  0.015625 0.046875 0  0.03125 0.046875 0  0.046875 0.046875 0  0.0625 0.046875 0  0.078125 0.046875 0  0.09375 0.046875 0  0.109375 0.046875 0  0.125 0.046875 0  0.140625 0.046875 0  0.15625 0.046875 0  0.171875 0.046875 0  0.1875 0.046875 0  0.203125 0.046875 0  0.21875 0.046875 0  0.234375 0.046875 0  0.25 0.046875 0  0.265625 0.046875 0  0.28125 0.046875 0  0.296875 0.046875 0  0.3125 0.046875 0  0.328125 0.046875 0  0.34375 0.046875 0  0.359375 0.046875 0  0.375 0.046875 0  0.390625 0.046875 0  0.40625 0.046875 0  0.421875 0.046875 0  0.4375 0.046875 0  0.453125 0.046875 0  0.46875 0.046875 0  0.484375 0.046875 0  0.5 0.046875 0  0.515625 0.046875 0  0.53125 0.046875 0  0.546875 0.046875 0  0.5625 0.046875 0  0.578125 0.046875 0  0.59375 0.046875 0  0.609375 0.046875 0  0.625 0.046875 0  0.640625 0.046875 0  0.65625 0.046875 0  0.671875 0.046875 0  0.6875 0.046875 0  0.703125 0.046875 0  0.71875 0.046875 0  0.734375 0.046875 0  0.75 0.046875 0  0.765625 0.046875 0  0.78125 0.046875 0  0.796875 0.046875 0  0.8125 0.046875 0  0.828125 0.046875 0  0.84375 0.046875 0  0.859375 0.046875 0  0.875 0.046875 0  0.890625 0.046875 0  0.90625 0.046875 0  0.921875 0.046875 0  0.9375 0.046875 0  0.953125 0.046875 0  0.96875 0.046875 0  0.984375 0.046875 0  1 0.046875 0  0 0.0625 0  0.015625 0.0625 0  0.03125 0.0625 0  0.046875 0.0625 0  0.0625 0.0625 0  0.078125 0.0625 0  0.09375 0.0625 0  0.109375 0.0625 0  0.125 0.0625 0  0.140625 0.0625 0  0.15625 0.0625 0  0.171875 0.0625 0  0.1875 0.0625 0  0.203125 0.0625 0  0.21875 0.0625 0  0.234375 0.0625 0  0.25 0.0625 0  0.265625 0.0625 0  0.28125 0.0625 0  0.296875 0.0625 0  0.3125 0.0625 0  0.328125 0.0625 0  0.34375 0.0625 0  0.359375 0.0625 0  0.375 0.0625 0  0.390625 0.0625 0  0.40625 0.0625 0  0.421875 0.0625 0  0.4375 0.0625 0  0.453125 0.0625 0  0.46875 0.0625 0  0.484375 0.0625 0  0.5 0.0625 0  0.515625 0.0625 0  0.53125 0.0625 0  0.546875 0.0625 0  0.5625 0.0625 0  0.578125 0.0625 0  0.59375 0.0625 0  0.609375 0.0625 0  0.625 0.0625 0  0.640625 0.0625 0  0.65625 0.0625 0  0.671875 0.0625 0  0.6875 0.0625 0  0.703125 0.0625 0  0.71875 0.0625 0  0.734375 0.0625 0  0.75 0.0625 0  0.765625 0.0625 0  0.78125 0.0625 0  0.796875 0.0625 0  0.8125 0.0625 0  0.828125 0.0625 0  0.84375 0.0625 0  0.859375 0.0625 0  0.875 0.0625 0  0.890625 0.0625 0  0.90625 0.0625 0  0.921875 0.0625 0  0.9375 0.0625 0  0.953125 0.0625 0  0.96875 0.0625 0  0.984375 0.0625 0  1 0.0625 0  0 0.078125 0  0.015625 0.078125 0  0.03125 0.078125 0  0.046875 0.078125 0  0.0625 0.078125 0  0.078125 0.078125 0  0.09375 0.078125 0  0.109375 0.078125 0  0.125 0.078125 0  0.140625 0.078125 0  0.15625 0.078125 0  0.171875 0.078125 0  0.1875 0.078125 0  0.203125 0.078125 0  0.21875 0.078125 0  0.234375 0.078125 0  0.25 0.078125 0  0.265625 0.078125 0  0.28125 0.078125 0  0.296875 0.078125 0  0.3125 0.078125 0  0.328125 0.078125 0  0.34375 0.078125 0  0.359375 0.078125 0  0.375 0.078125 0  0.390625 0.078125 0  0.40625 0.078125 0  0.421875 0.078125 0  0.4375 0.078125 0  0.453125 0.078125 0  0.46875 0.078125 0  0.484375 0.078125 0  0.5 0.078125 0  0.515625 0.078125 0  0.53125 0.078125 0  0.546875 0.078125 0  0.5625 0.078125 0  0.578125 0.078125 0  0.59375 0.078125 0  0.609375 0.078125 0  0.625 0.078125 0  0.640625 0.078125 0  0.65625 0.078125 0  0.671875 0.078125 0  0.6875 0.078125 0  0.703125 0.078125 0  0.71875 0.078125 0  0.734375 0.078125 0  0.75 0.078125 0  0.765625 0.078125 0  0.78125 0.078125 0  0.796875 0.078125 0  0.8125 0.078125 0  0.828125 0.078125 0  0.84375 0.078125 0  0.859375 0.078125 0  0.875 0.078125 0  0.890625 0.078125 0  0.90625 0.078125 0  0.921875 0.078125 0  0.9375 0.078125 0  0.953125 0.078125 0  0.96875 0.078125 0  0.984375 0.078125 0  1 0.078125 0  0 0.09375 0  0.015625 0.09375 0  0.03125 0.09375 0  0.046875 0.09375 0  0.0625 0.09375 0  0.078125 0.09375 0  0.09375 0.09375 0  0.109375 0.09375 0  0.125 0.09375 0  0.140625 0.09375 0  0.15625 0.09375 0  0.171875 0.09375 0  0.1875 0.09375 0  0.203125 0.09375 0  0.21875 0.09375 0  0.234375 0.09375 0  0.25 0.09375 0  0.265625 0.09375 0  0.28125 0.09375 0  0.296875 0.09375 0  0.3125 0.09375 0  0.328125 0.09375 0  0.34375 0.09375 0  0.359375 0.09375 0  0.375 0.09375 0  0.390625 0.09375 0  0.40625 0.09375 0  0.421875 0.09375 0  0.4375 0.09375 0  0.453125 0.09375 0  0.46875 0.09375 0  0.484375 0.09375 0  0.5 0.09375 0  0.515625 0.09375 0  0.53125 0.09375 0  0.546875 0.09375 0  0.5625 0.09375 0  0.578125 0.09375 0  0.59375 0.09375 0  0.609375 0.09375 0  0.625 0.09375 0  0.640625 0.09375 0  0.65625 0.09375 0  0.671875 0.09375 0  0.6875 0.09375 0  0.703125 0.09375 0  0.71875 0.09375 0  0.734375 0.09375 0  0.75 0.09375 0  0.765625 0.09375 0  0.78125 0.09375 0  0.796875 0.09375 0  0.8125 0.09375 0  0.828125 0.09375 0  0.84375 0.09375 0  0.859375 0.09375 0  0.875 0.09375 0  0.890625 0.09375 0  0.90625 0.09375 0  0.921875 0.09375 0  0.9375 0.09375 0  0.953125 0.09375 0  0.96875 0.09375 0  0.984375 0.09375 0  1 0.09375 0  0 0.109375 0  0.015625 0.109375 0  0.03125 0.109375 0  0.046875 0.109375 0  0.0625 0.109375 0  0.078125 0.109375 0  0.09375 0.109375 0  0.109375 0.109375 0  0.125 0.109375 0  0.140625 0.109375 0  0.15625 0.109375 0  0.171875 0.109375 0  0.1875 0.109375 0  0.203125 0.109375 0  0.21875 0.109375 0  0.234375 0.109375 0  0.25 0.109375 0  0.265625 0.109375 0  0.28125 0.109375 0  0.296875 0.109375 0  0.3125 0.109375 0  0.328125 0.109375 0  0.34375 0.109375 0  0.359375 0.109375 0  0.375 0.109375 0  0.390625 0.109375 0  0.40625 0.109375 0  0.421875 0.109375 0  0.4375 0.109375 0  0.453125 0.109375 0  0.46875 0.109375 0  0.484375 0.109375 0  0.5 0.109375 0  0.515625 0.109375 0  0.53125 0.109375 0  0.546875 0.109375 0  0.5625 0.109375 0  0.578125 0.109375 0  0.59375 0.109375 0  0.609375 0.109375 0  0.625 0.109375 0  0.640625 0.109375 0  0.65625 0.109375 0  0.671875 0.109375 0  0.6875 0.109375 0  0.703125 0.109375 0  0.71875 0.109375 0  0.734375 0.109375 0  0.75 0.109375 0  0.765625 0.109375 0  0.78125 0.109375 0  0.796875 0.109375 0  0.8125 0.109375 0  0.828125 0.109375 0  0.84375 0.109375 0  0.859375 0.109375 0  0.875 0.109375 0  0.890625 0.109375 0  0.90625 0.109375 0  0.921875 0.109375 0  0.9375 0.109375 0  0.953125 0.109375 0  0.96875 0.109375 0  0.984375 0.109375 0  1 0.109375 0  0 0.125 0  0.015625 0.125 0  0.03125 0.125 0  0.046875 0.125 0  0.0625 0.125 0  0.078125 0.125 0  0.09375 0.125 0  0.109375 0.125 0  0.125 0.12
[...]
<PointData  Scalars="f_12"> 
<DataArray  type="Float64"  Name="f_12"  format="ascii">6.3378860741907261e-01  6.3378966118728020e-01  6.3379279768532926e-01  6.3379794027056813e-01  6.3380496283907251e-01  6.3381369201672055e-01  6.3382391027790297e-01  6.3383535988330941e-01  6.3384774756899287e-01  6.3386074990183372e-01  6.3387401920363851e-01  6.3388718993939031e-01  6.3389988546418696e-01  6.3391172502637461e-01  6.3392233092857453e-01  6.3393133575090477e-01  6.3393838954001858e-01  6.3394316686324603e-01  6.3394537361918246e-01  6.3394475348468793e-01  6.3394109386500153e-01  6.3393423120172454e-01  6.3392405548513397e-01  6.3391051381357677e-01  6.3389361284469437e-01  6.3387341999288216e-01  6.3385006324754622e-01  6.3382372951966848e-01  6.3379466147004371e-01  6.3376315282911644e-01  6.3372954228202216e-01  6.3369420605892957e-01  6.3365754943527230e-01  6.3361999740440078e-01  6.3358198483196904e-01  6.3354394643158685e-01  6.3350630691098209e-01  6.3346947162572509e-01  6.3343381804285204e-01  6.3339968826087867e-01  6.3336738276266613e-01  6.3333715550550673e-01  6.3330921039063026e-01  6.3328369910921933e-01  6.3326072033438296e-01  6.3324032021292398e-01  6.3322249409967957e-01  6.3320718946410048e-01  6.3319430987945280e-01  6.3318371997882106e-01  6.3317525123154750e-01  6.3316870836249461e-01  6.3316387620720893e-01  6.3316052677085699e-01  6.3315842624132612e-01  6.3315734170346183e-01  6.3315704731934164e-01  6.3315732978237371e-01  6.3315799291757069e-01  6.3315886137654165e-01  6.3315978345080215e-01  6.3316063309011827e-01  6.3316131125645569e-01  6.3316174676495329e-01  6.3316189679429502e-01  6.3378348086872593e-01  6.3378453621149511e-01  6.3378767795789348e-01  6.3379282899918410e-01  6.3379986310173031e-01  6.3380860671878114e-01  6.3381884212029604e-01  6.3383031134054679e-01  6.3384272087642612e-01  6.3385574705159942e-01  6.3386904194882432e-01  6.3388223980610958e-01  6.3389496377135934e-01  6.3390683291294270e-01  6.3391746938770410e-01  6.3392650567047204e-01  6.3393359174831265e-01  6.3393840217828745e-01  6.3394064289944718e-01  6.3394005767851902e-01  6.3393643405574462e-01  6.3392960864572490e-01  6.3391947164018392e-01  6.3390597035624741e-01  6.3388911167609407e-01  6.3386896323353292e-01  6.3384565322304143e-01  6.3381936873942746e-01  6.3379035260179595e-01  6.3375889867176960e-01  6.3372534573934403e-01  6.3369007011600731e-01  6.3365347713902020e-01  6.3361599184850614e-01  6.3357804914567495e-01  6.3354008377082904e-01  6.3350252044972932e-01  6.3346576454490400e-01  6.3343019351399599e-01  6.3339614942171507e-01  6.3336393268238456e-01  6.3333379713841564e-01  6.3330594651817562e-01  6.3328053227171177e-01  6.3325765275499157e-01  6.3323735371739254e-01  6.3321963003562343e-01  6.3320442862358906e-01  6.3319165242794917e-01  6.3318116539275293e-01  6.3317279824606343e-01  6.3316635493037143e-01  6.3316161946941052e-01  6.3315836303891615e-01  6.3315635099160616e-01  6.3315534958346242e-01  6.3315513216643449e-01  6.3315548465554050e-01  6.3315621014271106e-01  6.3315713260571826e-01  6.3315809973543913e-01  6.3315898496766110e-01  6.3315968884921825e-01  6.3316013988841879e-01  6.3316029518072448e-01  6.3376813479266592e-01  6.3376919466635584e-01  6.3377235131885046e-01  6.3377752692315359e-01  6.3378459486420502e-01  6.3379338109022942e-01  6.3380366727076620e-01  6.3381519477261328e-01  6.3382766938552892e-01  6.3384076671236800e-01  6.3385413812612124e-01  6.3386741718993256e-01  6.3388022643496422e-01  6.3389218439331485e-01  6.3390291278692135e-01  6.3391204377570742e-01  6.3391922716709237e-01  6.3392413748405996e-01  6.3392648078079084e-01  6.3392600108389519e-01  6.3392248632506387e-01  6.3391577362032492e-01  6.3390575374423974e-01  6.3389237464516812e-01  6.3387564385076189e-01  6.3385562962267383e-01  6.3383246073890720e-01  6.3380632481389243e-01  6.3377746511085886e-01  6.3374617585645976e-01  6.3371279613027898e-01  6.3367770246734445e-01  6.3364130037534971e-01  6.3360401502549346e-01  6.3356628142230142e-01  6.3352853438844747e-01  6.3349119871117487e-01  6.3345467978553993e-01  6.3341935505591285e-01  6.3338556650272848e-01  6.3335361435326387e-01  6.3332375212482217e-01  6.3329618304762714e-01  6.3327105786988169e-01  6.3324847401912077e-01  6.3322847607703614e-01  6.3321105751200368e-01  6.3319616359828779e-01  6.3318369542988784e-01  6.3317351491013651e-01  6.3316545056788787e-01  6.3315930402041076e-01  6.3315485687429196e-01  6.3315187783104310e-01  6.3315012974749596e-01  6.3314937639848279e-01  6.3314938870758797e-01  6.3314995025435583e-01  6.3315086193008097e-01  6.3315194568970801e-01  6.3315304742186884e-01  6.3315403902163248e-01  6.3315481979368771e-01  6.3315531733346775e-01  6.3315548833037372e-01  6.3374267171252741e-01  6.3374373943264539e-01  6.3374692088877116e-01  6.3375213738136105e-01  6.3375926165330942e-01  6.3376811880872008e-01  6.3377848951435456e-01  6.3379011402212215e-01  6.3380269694061075e-01  6.3381591266895565e-01  6.3382941139553239e-01  6.3384282555808857e-01  6.3385577666045634e-01  6.3386788234267977e-01  6.3387876360451934e-01  6.3388805208420906e-01  6.3389539729266453e-01  6.3390047369785718e-01  6.3390298754570118e-01  6.3390268329332056e-01  6.3389934951951865e-01  6.3389282416821435e-01  6.3388299897555878e-01  6.3386982293099481e-01  6.3385330462673228e-01  6.3383351336011939e-01  6.3381057887202152e-01  6.3378468963447143e-01  6.3375608964367891e-01  6.3372507372844078e-01  6.3369198144536587e-01  6.3365718969650764e-01  6.3362110426740348e-01  6.3358415053994344e-01  6.3354676368074281e-01  6.3350937863687162e-01  6.3347242028234507e-01  6.3343629404838020e-01  6.3340137733777113e-01  6.3336801197101600e-01  6.3333649784584523e-01  6.3330708792347701e-01  6.3327998459515034e-01  6.3325533743784423e-01  6.3323324233888290e-01  6.3321374195044300e-01  6.3319682741977368e-01  6.3318244132328771e-01  6.3317048170974510e-01  6.3316080713009104e-01  6.3315324250141758e-01  6.3314758562242024e-01  6.3314361412957409e-01  6.3314109265943386e-01  6.3313977996684534e-01  6.3313943574723663e-01  6.3313982692984083e-01  6.3314073325089626e-01  6.3314195197864787e-01  6.3314330173635869e-01  6.3314462544327699e-01  6.3314579245540981e-01  6.3314670003062723e-01  6.3314727426263651e-01  6.3314747105479907e-01  6.3370726253208953e-01  6.3370834140065557e-01  6.3371155750754893e-01  6.3371683112426025e-01  6.3372403409496469e-01  6.3373299034049280e-01  6.3374347912104423e-01  6.3375523912398524e-01  6.3376797330017276e-01  6.3378135435992322e-01  6.3379503083088751e-01  6.3380863357498396e-01  6.3382178265978195e-01  6.3383409448062344e-01  6.3384518903209719e-01  6.3385469722869503e-01  6.3386226817216063e-01  6.3386757625699408e-01  6.3387032799711596e-01  6.3387026844688932e-01  6.3386718708012368e-01  6.3386092298370322e-01  6.3385136921985163e-01  6.3383847621290645e-01  6.3382225402216197e-01  6.3380277337255897e-01  6.3378016533258497e-01  6.3375461955701118e-01  6.3372638105276646e-01  6.3369574547821150e-01  6.3366305304556170e-01  6.3362868115849391e-01  6.3359303597776817e-01  6.3355654316321752e-01  6.3351963808665457e-01  6.3348275584209235e-01  6.3344632139236989e-01  6.3341074018217591e-01  6.3337638951635189e-01  6.3334361095192060e-01  6.3331270388930327e-01  6.3328392048272464e-01  6.3325746193179100e-01  6.3323347617175507e-01  6.3321205694946159e-01  6.3319324425090073e-01  6.3317702602816395e-01  6.3316334115296768e-01  6.3315208349859553e-01  6.3314310702329046e-01  6.3313623169809530e-01  6.3313125009277238e-01  6.3312793440626780e-01  6.3312604370551362e-01  6.3312533112206737e-01  6.3312555075566301e-01  6.3312646405294637e-01  6.3312784547135015e-01  6.3312948729958607e-01  6.3313120357914010e-01  6.3313283314368707e-01  6.3313424185435230e-01  6.3313532415083840e-01  6.3313600405829407e-01  6.3313623632372606e-01  6.3366214628504058e-01  6.3366323957421822e-01  6.3366650008348313e-01  6.3367184690076506e-01  6.3367915071666436e-01  6.3368823393088991e-01  6.3369887399346359e-01  6.3371080757685105e-01  6.3372373549660244e-01  6.3373732828852836e-01  6.3375123234396058e-01  6.3376507650063707e-01  6.3377847898475248e-01  6.3379105459971019e-01  6.3380242205841197e-01  6.3381221135621080e-01  6.3382007107860538e-01  6.3382567553129843e-01  6.3382873157183639e-01  6.3382898501313312e-01  6.3382622646133346e-01  6.3382029644596150e-01  6.3381108970055222e-01  6.3379855845649080e-01  6.3378271462019342e-01  6.3376363071420649e-01  6.3374143947916095e-01  6.3371633205964140e-01  6.3368855473519869e-01  6.3365840420715858e-01  6.3362622150885917e-01  6.3359238466681667e-01  6.3355730029919743e-01  6.3352139439260247e-01  6.3348510254443946e-01  6.3344885999074008e-01  6.3341309175319116e-01  6.3337820323162053e-01  6.3334457153902735e-01  6.3331253782859798e-01  6.3328240080278941e-01  6.3325441153260087e-01  6.3322876965926389e-01  6.3320562100619859e-01  6.3318505659678259e-01  6.3316711304949591e-01  6.3315177430051772e-01  6.3313897457993407e-01  6.3312860253974246e-01  6.3312050640154727e-01  6.3311449996164226e-01  6.3311036926248720e-01  6.3310787971367077e-01  6.3310678342435056e-01  6.3310682649650707e-01  6.3310775602928593e-01  6.3310932660443964e-01  6.3311130606397281e-01  6.3311348045105320e-01  6.3311565805622683e-01  6.3311767258179841e-01  6.3311938549709845e-01  6.3312068769880470e-01  6.3312150061024941e-01  6.3312177746697507e-01  6.3360762975581675e-01  6.3360874068687512e-01  6.3361205519047514e-01  6.3361749102122911e-01  6.3362491746496297e-01  6.3363415506641019e-01  6.3364497906536166e-01  6.3365712367199778e-01  6.3367028709173512e-01  6.3368413720336370e-01  6.3369831779054986e-01  6.3371245522423825e-01  6.3372616549145033e-01  6.3373906146501369e-01  6.3375076030882593e-01  6.3376089091243126e-01  6.3376910124492380e-01  6.3377506551148477e-01  6.3377849098778527e-01  6.3377912439968498e-01  6.3377675770984299e-01  6.3377123317111173e-01  6.3376244750992172e-01  6.3375035511022815e-01  6.3373497007782409e-01  6.3371636707555878e-01  6.3369468083508596e-01  6.3367010427459280e-01  6.3364288518732170e-01  6.3361332151207606e-01  6.3358175525078242e-01  6.3354856515521984e-01  6.3351415836189240e-01  6.3347896120780256e-01  6.3344340950624090e-01  6.3340793859496825e-01  6.3337297348433241e-01  6.3333891942712461e-01  6.3330615320524597e-01  6.3327501538386666e-01  6.3324580372847994e-01  6.3321876792213949e-01  6.3319410566662260e-01  6.3317196020685851e-01  6.3315241928355848e-01  6.3313551549171010e-01  6.3312122799752335e-01  6.3310948553910318e-01  6.3310017060537960e-01  6.3309312465584189e-01  6.3308815421293085e-01  6.3308503763081703e-01  6.3308353231977843e-01  6.3308338218625704e-01  6.3308432503802581e-01  6.3308609970631546e-01  6.3308845265696656e-01  6.3309114390302035e-01  6.3309395208926833e-01  6.3309667868786434e-01  6.3309915131277983e-01  6.3310122621930864e-01  6.3310279009562109e-01  6.3310376127320278e-01  6.3310409114279598e-01  6.3354408680611896e-01  6.3354521852075329e-01  6.3354859636313654e-01  6.3355413661305748e-01  6.3356170690764602e-01  6.3357112561155282e-01  6.3358216536353229e-01  6.3359455747329085e-01  6.3360799707041959e-01  6.3362214890364110e-01  6.3363665368788435e-01  6.3365113489604052e-01  6.3366520589052056e-01  6.3367847728785409e-01  6.3369056444823135e-01  6.3370109497984273e-01  6.3370971614344684e-01  6.3371610203584749e-01  6.3371996042348244e-01  6.3372103909097832e-01  6.3371913156607473e-01  6.3371408208349067e-01  6.3370578965673774e-01  6.3369421113701374e-01  6.3367936314938078e-01  6.3366132280752707e-01  6.3364022712233203e-01  6.3361627104092211e-01  6.3358970408517412e-01  6.3356082560147076e-01  6.3352997868382754e-01  6.3349754288650262e-01  6.3346392589710743e-01  6.3342955439419413e-01  6.3339486435959402e-01  6.3336029114959591e-01  6.3332625964546196e-01  6.3329317480006497e-01  6.3326141287355664e-01  6.3323131361033713e-01  6.3320317355858580e-01  6.3317724067942927e-01  6.3315371034155576e-01  6.3313272275264976e-01  6.3311436184242320e-01  6.3309865558135414e-01  6.3308557769045293e-01  6.3307505066664793e-01  6.3306695001490687e-01  6.3306110954439465e-01  6.3305732755449562e-01  6.3305537370880238e-01  6.3305499637213103e-01  6.3305593016873063e-01  6.3305790351154079e-01  6.3306064585634014e-01  6.3306389445518663e-01  6.3306740042293230e-01  6.3307093398655823e-01  6.3307428885288319e-01  6.3307728569633448e-01  6.3307977482520938e-01  6.3308163812499496e-01  6.3308279039735849e-01  6.3308318088343674e-01  6.3347195728093664e-01  6.3347311280399476e-01  6.3347656296841082e-01  6.3348222245009622e-01  6.3348995700593824e-01  6.3349958251091743e-01  6.3351086862927719e-01  6.3352354335016914e-01  6.3353729828001493e-01  6.3355179458294331e-01  6.3356666946290663e-01  6.3358154308264270e-01  6.3359602581370866e-01  6.3360972570917351e-01  6.3362225608772793e-01  6.3363324311464075e-01  6.3364233326003139e-01  6.3364920050837492e-01  6.3365355318656014e-01  6.3365514027329928e-01  6.3365375705189186e-01  6.3364924997248984e-01  6.3364152059935408e-01  6.3363052853129653e-01  6.3361629319633361e-01  6.3359889443312378e-01  6.3357847178467119e-01  6.3355522244890017e-01  6.3352939785963314e-01  6.3350129891043050e-01  6.3347126988019875e-01  6.3343969117041055e-01  6.3340697101681609e-01  6.3337353639055582e-01  6.3333982334960615e-01  6.3330626713566929e-01  6.3327329232928398e-01  6.3324130337445861e-01  6.3321067576352907e-01  6.3318174813642769e-01  6.3315481550185360e-01  6.3313012373731303e-01  6.3310786547580766e-01  6.3308817744247980e-01  6.3307113926597147e-01  6.3305677375533065e-01  6.3304504860077071e-01  6.3303587942244965e-01  6.3302913405535177e-01  6.3302463792267072e-01  6.3302218031768986e-01  6.3302152138669587e-01  6.3302239958389317e-01  6.3302453935475322e-01  6.3302765879839862e-01  6.3303147706520113e-01  6.3303572126652052e-01  6.3304013271169235e-01  6.3304447234091421e-01  6.3304852528538613e-01  6.3305210454930727e-01  6.3305505386321714e-01  6.3305724979764588e-01  6.3305860324639907e-01  6.3305906103113574e-01  6.3339174535601617e-01  6.3339292754972709e-01  6.3339645851930848e-01  6.3340225122516214e-01  6.3341016933116323e-01  6.3342002593710367e-01  6.3343158738686645e-01  6.3344457795854014e-01  6.3345868531835936e-01  6.3347356662168552e-01  6.3348885514922992e-01  6.3350416737072524e-01  6.3351911032855457e-01  6.3353328923082863e-01  6.3354631513914073e-01  6.3355781263163136e-01  6.3356742731664706e-01  6.3357483306618134e-01  6.3357973883291696e-01  6.3358189491228545e-01  6.3358109851299860e-01  6.3357719850659033e-01  6.3357009923851793e-01  6.3355976329840291e-01  6.3354621316147752e-01  6.3352953162541259e-01  6.3350986097871809e-01  6.3348740085367938e-01  6.3346240474219329e-01  6.3343517518769277e-01  6.3340605770888203e-01  6.3337543355897263e-01  6.3334371147524426e-01  6.3331131862465673e-01  6.3327869099671019e-01  6.3324626352915436e-01  6.3321446027108697e-01  6.3318368488893373e-01  6.3315431180381332e-01  6.3312667821660118e-01  6.3310107723451137e-01  6.3307775226571927e-01  6.3305689280111010e-01  6.3303863165781749e-01  6.3302304371910434e-01  6.3301014616828877e-01  6.3299990017826535e-01  6.3299221398070693e-01  6.3298694720045667e-01  6.3298391630320006e-01  6.3298290097116172e-01  6.3298365119431277e-01  6.3298589484440859e-01  6.3298934548694941e-01  6.3299371018267547e-01  6.3299869703727363e-01  6.3300402227880748e-01  6.3300941667915456e-01  6.3301463118658785e-01  6.3301944169596169e-01  6.3302365294309282e-01  6.3302710156283371e-01  6.3302965838917913e-01  6.3303123009649387e-01  6.3303176085763790e-01  6.3330401718340579e-01  6.3330522869412886e-01  6.3330884829100531e-01  6.3331478713020883e-01  6.3332290659600865e-01  6.3333301676149589e-01  6.3334488034401915e-01  6.3335821756325528e-01  6.3337271177292775e-01  6.3338801574013770e-01  6.3340375845362862e-01  6.3341955234875524e-01  6.3343500083885163e-01  6.3344970603974571e-01  6.3346327656880341e-01  6.3347533529417577e-01  6.3348552690429405e-01  6.3349352516229007e-01  6.3349903970623278e-01  6.3350182225597496e-01  6.3350167209227704e-01  6.3349844068375871e-01  6.3349203535171716e-01  6.3348242187997283e-01  6.3346962599297185e-01  6.3345373363811264e-01  6.3343489001946585e-01  6.3341329734439356e-01  6.3338921126637071e-01  6.3336293603811655e-01  6.3333481842798001e-01  6.3330524049757664e-01  6.3327461138772856e-01  6.3324335830922052e-01  6.3321191697955348e-01  6.3318072178140627e-01  6.3315019593871735e-01  6.3312074200986068e-01  6.3309273298418234e-01  6.3306650424035338e-01  6.3304234658644798e-01  6.3302050055714087e-01  6.3300115209739460e-01  6.3298442971773661e-01  6.3297040316495523e-01  6.3295908361269848e-01  6.3295042533697832e-01  6.3294432880100970e-01  6.3294064503294090e-01  6.3293918114109127e-01  6.3293970677717748e-01  6.3294196133091918e-01  6.3294566162052412e-01  6.3295050983334866e-01  6.3295620146955278e-01  6.3296243304990707e-01  6.3296890936972006e-01  6.3297535011605299e-01  6.3298149571331708e-01  6.3298711231808313e-01  6.3299199594086231e-01  6.3299597572349708e-01  6.3299891643901063e-01  6.3300072030199439e-01  6.3300132865222070e-01  6.3320939769633722e-01  6.3321064089576795e-01  6.3321435610424093e-01  6.3322045261350446e-01  6.3322878937575244e-01  6.3323917323060674e-01  6.3325136301552587e-01  6.3326507460255366e-01  6.3327998672129948e-01  6.3329574743198591e-01  6.3331198112166687e-01  6.3332829590543138e-01  6.3334429131814285e-01  6.3335956617987699e-01  6.3337372651229917e-01  6.3338639337672153e-01  6.3339721049883790e-01  6.3340585154068607e-01  6.3341202687846776e-01  6.3341548974718109e-01  6.3341604162051468e-01  6.3341353670693434e-01  6.3340788545971716e-01  6.3339905701778987e-01  6.3338708051180936e-01  6.3337204518331536e-01  6.3335409927518049e-01  6.3333344766344291e-01  6.3331034821884780e-01  6.3328510691350315e-01  6.3325807172352466e-01  6.3322962542072414e-01  6.3320017739308021e-01  6.3317015468136451e-01  6.3313999246293373e-01  6.3311012424821067e-01  6.3308097207683789e-01  6.3305293700673193e-01  6.3302639017992057e-01  6.3300166472549413e-01  6.3297904872511268e-01  6.3295877942440670e-01  6.3294103882876318e-01  6.3292595077789193e-01  6.3291357955142380e-01  6.3290393001641099e-01  6.3289694928529971e-01  6.3289252980966582e-01  6.3289051379215833e-01  6.3289069875892068e-01  6.3289284410005164e-01  6.3289667835876773e-01  6.3290190703204996e-01  6.3290822063691266e-01  6.3291530279648178e-01  6.3292283810933647e-01  6.3293051958620572e-01  6.3293805547157311e-01  6.3294517531257599e-01  6.3295163518969866e-01  6.3295722207752014e-01  6.3296175735263671e-01  6.3296509950346480e-01  6.3296714611841842e-01  6.3296783556797920e-01  6.3310856645300584e-01  6.3310984337664888e-01  6.3311366015903181e-01  6.3311992420103669e-01  6.3312849191234977e-01  6.3313916674789328e-01  6.3315170347802829e-01  6.3316581341141820e-01  6.3318117041931210e-01  6.3319741761435777e-01  6.3321417454771434e-01  6.3323104479890824e-01  6.3324762383840072e-01  6.3326350704148437e-01  6.3327829772628697e-01  6.3329161508186715e-01  6.3330310184675265e-01  6.3331243159488804e-01  6.3331931548606080e-01  6.3332350834259576e-01  6.3332481392392947e-01  6.3332308928547654e-01  6.3331824812727000e-01  6.3331026305890803e-01  6.3329916672641284e-01  6.3328505176061411e-01  6.3326806951625625e-01  6.3324842758051036e-01  6.3322638604449566e-01  6.3320225255510387e-01  6.3317637619684175e-01  6.3314914029274605e-01  6.3312095425745030e-01  6.3309224468088987e-01  6.3306344586341157e-01  6.3303499005738140e-01  6.3300729769302844e-01  6.3298076787517477e-01  6.3295576943197540e-01  6.3293263277730016e-01  6.3291164281689949e-01  6.3289303308858769e-01  6.3287698128286096e-01  6.3286360624637961e-01  6.3285296652785150e-01  6.3284506048289269e-01  6.3283982791001880e-01  6.3283715314454791e-01  6.3283686949281281e-01  6.3283876484804680e