<?xml version="1.0"?>
<VTKFile type="UnstructuredGrid"  version="0.1"  >
<UnstructuredGrid>
<Piece  NumberOfPoints="4225" NumberOfCells="8192">
<Points>
<DataArray  type="Float64"  NumberOfComponents="3"  format="ascii">0 0 0  0.015625 0 0  0.03125 0 0  0.046875 0 0  0.0625 0 0  0.078125 0 0  0.09375 0 0  0.109375 0 0  0.125 0 0  0.140625 0 0  0.15625 0 0  0.171875 0 0  0.1875 0 0  0.203125 0 0  0.21875 0 0  0.234375 0 0  0.25 0 0  0.265625 0 0  0.28125 0 0  0.296875 0 0  0.3125 0 0  0.328125 0 0  0.34375 0 0  0.359375 0 0  0.375 0 0  0.390625 0 0  0.40625 0 0  0.421875 0 0  0.4375 0 0  0.453125 0 0  0.46875 0 0  0.484375 0 0  0.5 0 0  0.515625 0 0  0.53125 0 0  0.546875 0 0  0.5625 0 0  0.578125 0 0  0.59375 0 0  0.609375 0 0  0.625 0 0  0.640625 0 0  0.65625 0 0  0.671875 0 0  0.6875 0 0  0.703125 0 0  0.71875 0 0  0.734375 0 0  0.75 0 0  0.765625 0 0  0.78125 0 0  0.796875 0 0  0.8125 0 0  0.828125 0 0  0.84375 0 0  0.859375 0 0  0.875 0 0  0.890625 0 0  0.90625 0 0  0.921875 0 0  0.9375 0 0  0.953125 0 0  0.96875 0 0  0.984375 0 0  1 0 0  0 0.015625 0  0.015625 0.015625 0  0.03125 0.015625 0  0.046875 0.015625 0  0.0625 0.015625 0  0.078125 0.015625 0  0.09375 0.015625 0  0.109375 0.015625 0  0.125 0.015625 0  0.140625 0.015625 0  0.15625 0.015625 0  0.171875 0.015625 0  0.1875 0.015625 0  0.203125 0.015625 0  0.21875 0.015625 0  0.234375 0.015625 0  0.25 0.015625 0  0.265625 0.015625 0  0.28125 0.015625 0  0.296875 0.015625 0  0.3125 0.015625 0  0.328125 0.015625 0  0.34375 0.015625 0  0.359375 0.015625 0  0.375 0.015625 0  0.390625 0.015625 0  0.40625 0.015625 0  0.421875 0.015625 0  0.4375 0.015625 0  0.453125 0.015625 0  0.46875 0.015625 0  0.484375 0.015625 0  0.5 0.015625 0  0.515625 0.015625 0  0.53125 0.015625 0  0.546875 0.015625 0  0.5625 0.015625 0  0.578125 0.015625 0  0.59375 0.015625 0  0.609375 0.015625 0  0.625 0.015625 0  0.640625 0.015625 0  0.65625 0.015625 0  0.671875 0.015625 0  0.6875 0.015625 0  0.703125 0.015625 0  0.71875 0.015625 0  0.734375 0.015625 0  0.75 0.015625 0  0.765625 0.015625 0  0.78125 0.015625 0  0.796875 0.015625 0  0.8125 0.015625 0  0.828125 0.015625 0  0.84375 0.015625 0  0.859375 0.015625 0  0.875 0.015625 0  0.890625 0.015625 0  0.90625 0.015625 0  0.921875 0.015625 0  0.9375 0.015625 0  0.953125 0.015625 0  0.96875 0.015625 0  0.984375 0.015625 0  1 0.015625 0  0 0.03125 0  0.015625 0.03125 0  0.03125 0.03125 0  0.046875 0.03125 0  0.0625 0.03125 0  0.078125 0.03125 0  0.09375 0.03125 0  0.109375 0.03125 0  0.125 0.03125 0  0.140625 0.03125 0  0.15625 0.03125 0  0.171875 0.03125 0  0.1875 0.03125 0  0.203125 0.03125 0  0.21875 0.03125 0  0.234375 0.03125 0  0.25 0.03125 0  0.265625 0.03125 0  0.28125 0.03125 0  0.296875 0.03125 0  0.3125 0.03125 0  0.328125 0.03125 0  0.34375 0.03125 0  0.359375 0.03125 0  0.375 0.03125 0  0.390625 0.03125 0  0.40625 0.03125 0  0.421875 0.03125 0  0.4375 0.03125 0  0.453125 0.03125 0  0.46875 0.03125 0  0.484375 0.03125 0  0.5 0.03125 0  0.515625 0.03125 0  0.53125 0.03125 0  0.546875 0.03125 0  0.5625 0.03125 0  0.578125 0.03125 0  0.59375 0.03125 0  0.609375 0.03125 0  0.625 0.03125 0  0.640625 0.03125 0  0.65625 0.03125 0  0.671875 0.03125 0  0.6875 0.03125 0  0.703125 0.03125 0  0.71875 0.03125 0  0.734375 0.03125 0  0.75 0.03125 0  0.765625 0.03125 0  0.78125 0.03125 0  0.796875 0.03125 0  0.8125 0.03125 0  0.828125 0.03125 0  0.84375 0.03125 0  0.859375 0.03125 0  0.875 0.03125 0  0.890625 0.03125 0  0.90625 0.03125 0  0.921875 0.03125 0  0.9375 0.03125 0  0.953125 0.03125 0  0.96875 0.03125 0  0.984375 0.03125 0  1 0.03125 0  0 0.046875 0  0.015625 0.046875 0  0.03125 0.046875 0  0.046875 0.046875 0  0.0625 0.046875 0  0.078125 0.046875 0  0.09375 0.046875 0  0.109375 0.046875 0  0.125 0.046875 0  0.140625 0.046875 0  0.15625 0.046875 0  0.171875 0.046875 0  0.1875 0.046875 0  0.203125 0.046875 0  0.21875 0.046875 0  0.234375 0.046875 0  0.25 0.046875 0  0.265625 0.046875 0  0.28125 0.046875 0  0.296875 0.046875 0  0.3125 0.046875 0  0.328125 0.046875 0  0.34375 0.046875 0  0.359375 0.046875 0  0.375 0.046875 0  0.390625 0.046875 0  0.40625 0.046875 0  0.421875 0.046875 0  0.4375 0.046875 0  0.453125 0.046875 0  0.46875 0.046875 0  0.484375 0.046875 0  0.5 0.046875 0  0.515625 0.046875 0  0.53125 0.046875 0  0.546875 0.046875 0  0.5625 0.046875 0  0.578125 0.046875 0  0.59375 0.046875 0  0.609375 0.046875 0  0.625 0.046875 0  0.640625 0.046875 0  0.65625 0.046875 0  0.671875 0.046875 0  0.6875 0.046875 0  0.703125 0.046875 0  0.71875 0.046875 0  0.734375 0.046875 0  0.75 0.046875 0  0.765625 0.046875 0  0.78125 0.046875 0  0.796875 0.046875 0  0.8125 0.046875 0  0.828125 0.046875 0  0.84375 0.046875 0  0.859375 0.046875 0  0.875 0.046875 0  0.890625 0.046875 0  0.90625 0.046875 0  0.921875 0.046875 0  0.9375 0.046875 0  0.953125 0.046875 0  0.96875 0.046875 0  0.984375 0.046875 0  1 0.046875 0  0 0.0625 0  0.015625 0.0625 0  0.03125 0.0625 0  0.046875 0.0625 0  0.0625 0.0625 0  0.078125 0.0625 0  0.09375 0.0625 0  0.109375 0.0625 0  0.125 0.0625 0  0.140625 0.0625 0  0.15625 0.0625 0  0.171875 0.0625 0  0.1875 0.0625 0  0.203125 0.0625 0  0.21875 0.0625 0  0.234375 0.0625 0  0.25 0.0625 0  0.265625 0.0625 0  0.28125 0.0625 0  0.296875 0.0625 0  0.3125 0.0625 0  0.328125 0.0625 0  0.34375 0.0625 0  0.359375 0.0625 0  0.375 0.0625 0  0.390625 0.0625 0  0.40625 0.0625 0  0.421875 0.0625 0  0.4375 0.0625 0  0.453125 0.0625 0  0.46875 0.0625 0  0.484375 0.0625 0  0.5 0.0625 0  0.515625 0.0625 0  0.53125 0.0625 0  0.546875 0.0625 0  0.5625 0.0625 0  0.578125 0.0625 0  0.59375 0.0625 0  0.609375 0.0625 0  0.625 0.0625 0  0.640625 0.0625 0  0.65625 0.0625 0  0.671875 0.0625 0  0.6875 0.0625 0  0.703125 0.0625 0  0.71875 0.0625 0  0.734375 0.0625 0  0.75 0.0625 0  0.765625 0.0625 0  0.78125 0.0625 0  0.796875 0.0625 0  0.8125 0.0625 0  0.828125 0.0625 0  0.84375 0.0625 0  0.859375 0.0625 0  0.875 0.0625 0  0.890625 0.0625 0  0.90625 0.0625 0  0.921875 0.0625 0  0.9375 0.0625 0  0.953125 0.0625 0  0.96875 0.0625 0  0.984375 0.0625 0  1 0.0625 0  0 0.078125 0  0.015625 0.078125 0  0.03125 0.078125 0  0.046875 0.078125 0  0.0625 0.078125 0  0.078125 0.078125 0  0.09375 0.078125 0  0.109375 0.078125 0  0.125 0.078125 0  0.140625 0.078125 0  0.15625 0.078125 0  0.171875 0.078125 0  0.1875 0.078125 0  0.203125 0.078125 0  0.21875 0.078125 0  0.234375 0.078125 0  0.25 0.078125 0  0.265625 0.078125 0  0.28125 0.078125 0  0.296875 0.078125 0  0.3125 0.078125 0  0.328125 0.078125 0  0.34375 0.078125 0  0.359375 0.078125 0  0.375 0.078125 0  0.390625 0.078125 0  0.40625 0.078125 0  0.421875 0.078125 0  0.4375 0.078125 0  0.453125 0.078125 0  0.46875 0.078125 0  0.484375 0.078125 0  0.5 0.078125 0  0.515625 0.078125 0  0.53125 0.078125 0  0.546875 0.078125 0  0.5625 0.078125 0  0.578125 0.078125 0  0.59375 0.078125 0  0.609375 0.078125 0  0.625 0.078125 0  0.640625 0.078125 0  0.65625 0.078125 0  0.671875 0.078125 0  0.6875 0.078125 0  0.703125 0.078125 0  0.71875 0.078125 0  0.734375 0.078125 0  0.75 0.078125 0  0.765625 0.078125 0  0.78125 0.078125 0  0.796875 0.078125 0  0.8125 0.078125 0  0.828125 0.078125 0  0.84375 0.078125 0  0.859375 0.078125 0  0.875 0.078125 0  0.890625 0.078125 0  0.90625 0.078125 0  0.921875 0.078125 0  0.9375 0.078125 0  0.953125 0.078125 0  0.96875 0.078125 0  0.984375 0.078125 0  1 0.078125 0  0 0.09375 0  0.015625 0.09375 0  0.03125 0.09375 0  0.046875 0.09375 0  0.0625 0.09375 0  0.078125 0.09375 0  0.09375 0.09375 0  0.109375 0.09375 0  0.125 0.09375 0  0.140625 0.09375 0  0.15625 0.09375 0  0.171875 0.09375 0  0.1875 0.09375 0  0.203125 0.09375 0  0.21875 0.09375 0  0.234375 0.09375 0  0.25 0.09375 0  0.265625 0.09375 0  0.28125 0.09375 0  0.296875 0.09375 0  0.3125 0.09375 0  0.328125 0.09375 0  0.34375 0.09375 0  0.359375 0.09375 0  0.375 0.09375 0  0.390625 0.09375 0  0.40625 0.09375 0  0.421875 0.09375 0  0.4375 0.09375 0  0.453125 0.09375 0  0.46875 0.09375 0  0.484375 0.09375 0  0.5 0.09375 0  0.515625 0.09375 0  0.53125 0.09375 0  0.546875 0.09375 0  0.5625 0.09375 0  0.578125 0.09375 0  0.59375 0.09375 0  0.609375 0.09375 0  0.625 0.09375 0  0.640625 0.09375 0  0.65625 0.09375 0  0.671875 0.09375 0  0.6875 0.09375 0  0.703125 0.09375 0  0.71875 0.09375 0  0.734375 0.09375 0  0.75 0.09375 0  0.765625 0.09375 0  0.78125 0.09375 0  0.796875 0.09375 0  0.8125 0.09375 0  0.828125 0.09375 0  0.84375 0.09375 0  0.859375 0.09375 0  0.875 0.09375 0  0.890625 0.09375 0  0.90625 0.09375 0  0.921875 0.09375 0  0.9375 0.09375 0  0.953125 0.09375 0  0.96875 0.09375 0  0.984375 0.09375 0  1 0.09375 0  0 0.109375 0  0.015625 0.109375 0  0.03125 0.109375 0  0.046875 0.109375 0  0.0625 0.109375 0  0.078125 0.109375 0  0.09375 0.109375 0  0.109375 0.109375 0  0.125 0.109375 0  0.140625 0.109375 0  0.15625 0.109375 0  0.171875 0.109375 0  0.1875 0.109375 0  0.203125 0.109375 0  0.21875 0.109375 0  0.234375 0.109375 0  0.25 0.109375 0  0.265625 0.109375 0  0.28125 0.109375 0  0.296875 0.109375 0  0.3125 0.109375 0  0.328125 0.109375 0  0.34375 0.109375 0  0.359375 0.109375 0  0.375 0.109375 0  0.390625 0.109375 0  0.40625 0.109375 0  0.421875 0.109375 0  0.4375 0.109375 0  0.453125 0.109375 0  0.46875 0.109375 0  0.484375 0.109375 0  0.5 0.109375 0  0.515625 0.109375 0  0.53125 0.109375 0  0.546875 0.109375 0  0.5625 0.109375 0  0.578125 0.109375 0  0.59375 0.109375 0  0.609375 0.109375 0  0.625 0.109375 0  0.640625 0.109375 0  0.65625 0.109375 0  0.671875 0.109375 0  0.6875 0.109375 0  0.703125 0.109375 0  0.71875 0.109375 0  0.734375 0.109375 0  0.75 0.109375 0  0.765625 0.109375 0  0.78125 0.109375 0  0.796875 0.109375 0  0.8125 0.109375 0  0.828125 0.109375 0  0.84375 0.109375 0  0.859375 0.109375 0  0.875 0.109375 0  0.890625 0.109375 0  0.90625 0.109375 0  0.921875 0.109375 0  0.9375 0.109375 0  0.953125 0.109375 0  0.96875 0.109375 0  0.984375 0.109375 0  1 0.109375 0  0 0.125 0  0.015625 0.125 0  0.03125 0.125 0  0.046875 0.125 0  0.0625 0.125 0  0.078125 0.125 0  0.09375 0.125 0  0.109375 0.125 0  0.125 0.12
[...]
<PointData  Scalars="f_12"> 
<DataArray  type="Float64"  Name="f_12"  format="ascii">6.3519737434031620e-01  6.3519395862393191e-01  6.3518170845523647e-01  6.3517228837376372e-01  6.3519891324740851e-01  6.3527955338265263e-01  6.3540872924872049e-01  6.3556917708604366e-01  6.3574327492068172e-01  6.3591895431086798e-01  6.3607905556225874e-01  6.3622721547341554e-01  6.3636872747556317e-01  6.3650182042665904e-01  6.3662403727759975e-01  6.3673781280193564e-01  6.3685588159637552e-01  6.3699976314113060e-01  6.3715940032113461e-01  6.3732487271976557e-01  6.3750074888780695e-01  6.3767491478981408e-01  6.3783307017330493e-01  6.3795591388439599e-01  6.3802483336202842e-01  6.3802624716545242e-01  6.3795283566019712e-01  6.3780734871529565e-01  6.3758857537682523e-01  6.3730348423215888e-01  6.3695768432050237e-01  6.3655165424525129e-01  6.3611310531418164e-01  6.3568436841696385e-01  6.3526859617247700e-01  6.3488524169674010e-01  6.3457133314485192e-01  6.3435742348391211e-01  6.3423993690735170e-01  6.3418909085806707e-01  6.3416836817490196e-01  6.3413884313408253e-01  6.3409079007096736e-01  6.3401532926711890e-01  6.3390766104640583e-01  6.3378061981145684e-01  6.3366045043139396e-01  6.3356398814052928e-01  6.3348564688252762e-01  6.3342493965073876e-01  6.3338898533790511e-01  6.3339110215784389e-01  6.3343517756256806e-01  6.3349559697172597e-01  6.3353563449037753e-01  6.3352033075211378e-01  6.3343507413812095e-01  6.3330263950203658e-01  6.3313357169151241e-01  6.3294022226813484e-01  6.3274885879297482e-01  6.3257662357331956e-01  6.3244324780515349e-01  6.3236124191593124e-01  6.3233088797708770e-01  6.3519256926809076e-01  6.3519098924056117e-01  6.3518104610398685e-01  6.3517695946066421e-01  6.3520949642800384e-01  6.3529167444415691e-01  6.3541724130502975e-01  6.3557227024857543e-01  6.3574061024882356e-01  6.3591153556370184e-01  6.3607207018268208e-01  6.3621883117856770e-01  6.3635624669548840e-01  6.3648785447780243e-01  6.3661194917079722e-01  6.3673016853996967e-01  6.3685316189500707e-01  6.3699953691619016e-01  6.3716193012872846e-01  6.3732848099139783e-01  6.3750047701287682e-01  6.3766667890273432e-01  6.3782021688422019e-01  6.3794256119500448e-01  6.3801138707760296e-01  6.3801294928389685e-01  6.3794102984934276e-01  6.3779789217021765e-01  6.3757792344104869e-01  6.3729007185804698e-01  6.3694179700358922e-01  6.3654059670570939e-01  6.3610786794697727e-01  6.3568135766678502e-01  6.3527023683331163e-01  6.3488927981244070e-01  6.3457531728768268e-01  6.3435894386949310e-01  6.3423636657269844e-01  6.3417980427758414e-01  6.3415735586235555e-01  6.3412829955758565e-01  6.3407444109685707e-01  6.3399212634469393e-01  6.3388008012705954e-01  6.3375422463566311e-01  6.3363765923469784e-01  6.3354586803501378e-01  6.3347275940541381e-01  6.3341779431641787e-01  6.3338782616049416e-01  6.3339530988949944e-01  6.3344298136162702e-01  6.3350744586481755e-01  6.3355047658413777e-01  6.3353882165568365e-01  6.3345828608236898e-01  6.3332647739571313e-01  6.3315684233445835e-01  6.3296333232250890e-01  6.3277256209268229e-01  6.3260212467584065e-01  6.3247116729595565e-01  6.3238578824447578e-01  6.3235329858284706e-01  6.3517715930981844e-01  6.3517907874276291e-01  6.3517842513465983e-01  6.3518653894777632e-01  6.3522833909952725e-01  6.3531168646797187e-01  6.3543080349675607e-01  6.3557781683186143e-01  6.3573654564477444e-01  6.3589356768774019e-01  6.3604994904432954e-01  6.3619474494167116e-01  6.3632592776437313e-01  6.3645408291687189e-01  6.3658263304749341e-01  6.3670995531405183e-01  6.3684423613325125e-01  6.3699476867192473e-01  6.3715950015273159e-01  6.3732759777240144e-01  6.3749271973553934e-01  6.3764571900795397e-01  6.3778749496118936e-01  6.3790420641800172e-01  6.3797198101207042e-01  6.3797354590874578e-01  6.3790405276946482e-01  6.3776032117892589e-01  6.3753964412254427e-01  6.3724897101173905e-01  6.3690420290592931e-01  6.3651338325465301e-01  6.3609404002613879e-01  6.3567598959071936e-01  6.3527121611973170e-01  6.3489385557291722e-01  6.3457913940933086e-01  6.3435656876967084e-01  6.3422353059074832e-01  6.3415697335180898e-01  6.3412354000898297e-01  6.3408460853703519e-01  6.3402114237230023e-01  6.3392424770888678e-01  6.3380726234514717e-01  6.3368832525345042e-01  6.3358200192289582e-01  6.3350030019455228e-01  6.3344117782299458e-01  6.3340551768097608e-01  6.3339437649328556e-01  6.3341438102501224e-01  6.3347204087212083e-01  6.3354407170903904e-01  6.3359266377957413e-01  6.3358990370903889e-01  6.3352087165056636e-01  6.3339376374669443e-01  6.3322582884654299e-01  6.3303603524986340e-01  6.3284711397929350e-01  6.3267924121250774e-01  6.3254903453802758e-01  6.3245883782361356e-01  6.3242449128552614e-01  6.3515190349152340e-01  6.3515714645452559e-01  6.3516881389462099e-01  6.3519099832164072e-01  6.3523771253656114e-01  6.3531520937871011e-01  6.3542590944824917e-01  6.3556518619011781e-01  6.3571470913084349e-01  6.3586305383158048e-01  6.3601363818492596e-01  6.3615517363937057e-01  6.3628260894513256e-01  6.3641166008069083e-01  6.3654820594569139e-01  6.3668613305981736e-01  6.3683015218725669e-01  6.3698367450750115e-01  6.3714438772410908e-01  6.3730876409867332e-01  6.3746700662264533e-01  6.3761114328482971e-01  6.3773959255623291e-01  6.3784132642769376e-01  6.3790438024174256e-01  6.3790950232939725e-01  6.3784137628305937e-01  6.3769567430505936e-01  6.3747529738887065e-01  6.3718641494032446e-01  6.3684931623589891e-01  6.3647661000403477e-01  6.3607446773206711e-01  6.3566447669952453e-01  6.3526557439933085e-01  6.3489206558368616e-01  6.3457398390105657e-01  6.3434185196133708e-01  6.3419806201643758e-01  6.3411768213322006e-01  6.3406192143739182e-01  6.3400117532830402e-01  6.3392030674283972e-01  6.3381645977293743e-01  6.3370621189002974e-01  6.3360383552729627e-01  6.3351830210178517e-01  6.3345540980427095e-01  6.3341574786269528e-01  6.3340369451531575e-01  6.3341907952212428e-01  6.3346020684385951e-01  6.3352944891178542e-01  6.3360885468677419e-01  6.3366770342316792e-01  6.3367958380733636e-01  6.3362194678780059e-01  6.3350153285300970e-01  6.3333917699928766e-01  6.3315712105485367e-01  6.3297257333383750e-01  6.3280709534840174e-01  6.3267408955743598e-01  6.3258126964919925e-01  6.3254688061625741e-01  6.3511165255005553e-01  6.3512214209507944e-01  6.3514498357089511e-01  6.3517701123555392e-01  6.3522614949102318e-01  6.3529551547697682e-01  6.3539553019479078e-01  6.3551999708290541e-01  6.3565952953327698e-01  6.3580712843777587e-01  6.3595653074022385e-01  6.3609841759039720e-01  6.3622539276643919e-01  6.3635809321028602e-01  6.3650359348246510e-01  6.3665089498930261e-01  6.3679916349715326e-01  6.3695472328690939e-01  6.3711402941644424e-01  6.3727214297010870e-01  6.3741757405607802e-01  6.3754994646572705e-01  6.3766508162617064e-01  6.3775403996330693e-01  6.3780826089319964e-01  6.3781322278758101e-01  6.3774708408296987e-01  6.3760379139482759e-01  6.3738797203151265e-01  6.3711112920843072e-01  6.3679038521653253e-01  6.3643394202670034e-01  6.3604535930335460e-01  6.3564337823630512e-01  6.3524866069696129e-01  6.3487928527907245e-01  6.3455998073400210e-01  6.3431661546123863e-01  6.3415428826840037e-01  6.3405084731962957e-01  6.3397081021008272e-01  6.3388445933324955e-01  6.3378333839775558e-01  6.3367848132309734e-01  6.3358133934046856e-01  6.3350536256616352e-01  6.3345265990808841e-01  6.3341813305611627e-01  6.3340341430427205e-01  6.3341372259230189e-01  6.3345451679631215e-01  6.3352237677204937e-01  6.3361119677249977e-01  6.3370774352903891e-01  6.3378355662182995e-01  6.3380949668200359e-01  6.3376339470934828e-01  6.3364792527986891e-01  6.3349011707232505e-01  6.3331425309188139e-01  6.3313889845418292e-01  6.3298032366533807e-01  6.3284809905987649e-01  6.3275534393207267e-01  6.3272246053393266e-01  6.3505856634459790e-01  6.3507275098444715e-01  6.3510378347109098e-01  6.3514349946200022e-01  6.3519474637668005e-01  6.3526075254326209e-01  6.3534819898232753e-01  6.3545371293808894e-01  6.3557889171837578e-01  6.3572001035969172e-01  6.3586729226025940e-01  6.3600892068894799e-01  6.3614028467149786e-01  6.3627576732570124e-01  6.3642396404153823e-01  6.3657922144150492e-01  6.3673550632955844e-01  6.3689834586461225e-01  6.3706246550228984e-01  6.3721496546177070e-01  6.3734403263253470e-01  6.3745319583395965e-01  6.3755042732027933e-01  6.3762883608636711e-01  6.3767462899976990e-01  6.3767445524252919e-01  6.3760869160973188e-01  6.3746934897222618e-01  6.3726655684927025e-01  6.3701343459108029e-01  6.3671818638675448e-01  6.3637545451028177e-01  6.3599436656954123e-01  6.3559773230220273e-01  6.3520369541108179e-01  6.3483674264932710e-01  6.3452240354357492e-01  6.3427162586600561e-01  6.3408839688991891e-01  6.3395653809329455e-01  6.3385132649360876e-01  6.3374479540662976e-01  6.3363364491534979e-01  6.3353037106924215e-01  6.3344719445454933e-01  6.3340117303443189e-01  6.3338394410018195e-01  6.3337985078007752e-01  6.3339085625354907e-01  6.3342327430626910e-01  6.3348666131370379e-01  6.3358297567277144e-01  6.3370050662575983e-01  6.3382066812491755e-01  6.3391686411558057e-01  6.3395683441604256e-01  6.3392513921582405e-01  6.3382423780113750e-01  6.3367523465494402e-01  6.3350705907870375e-01  6.3334182387966398e-01  6.3319183823378744e-01  6.3306683088429105e-01  6.3297844352595378e-01  6.3294629213805242e-01  6.3498318704440448e-01  6.3499992601890509e-01  6.3503767254369081e-01  6.3508879525353501e-01  6.3514820646552617e-01  6.3521286907532803e-01  6.3528904198869496e-01  6.3537653496713353e-01  6.3548130228762245e-01  6.3560866190911369e-01  6.3574809975285085e-01  6.3588487719740305e-01  6.3601635303107507e-01  6.3615511844124750e-01  6.3630492778778525e-01  6.3646442372635170e-01  6.3663248192902644e-01  6.3681121077114866e-01  6.3698422304600077e-01  6.3713353841549081e-01  6.3724810593240988e-01  6.3733162367837837e-01  6.3740118447444638e-01  6.3746325183593822e-01  6.3750082491299720e-01  6.3749421788803495e-01  6.3742598996116040e-01  6.3729050060537429e-01  6.3710394933210568e-01  6.3687648452787782e-01  6.3660341331355996e-01  6.3627614505254837e-01  6.3590487549289221e-01  6.3551352561709373e-01  6.3512103394673114e-01  6.3475814897778859e-01  6.3444755800263719e-01  6.3419272844544439e-01  6.3399010558016666e-01  6.3382984588156077e-01  6.3369816623882069e-01  6.3358325614706401e-01  6.3347691241093962e-01  6.3338199400538164e-01  6.3331316962039286e-01  6.3328951828335522e-01  6.3329744826587087e-01  6.3332056463760678e-01  6.3336202670121422e-01  6.3342334042265225e-01  6.3351257245483727e-01  6.3363633866091140e-01  6.3378193199905952e-01  6.3392486457854469e-01  6.3403664309008323e-01  6.3409581338866683e-01  6.3408640643806113e-01  6.3400994600299676e-01  6.3388264695440932e-01  6.3373058194759868e-01  6.3357761261206280e-01  6.3343748904571218e-01  6.3332015562674804e-01  6.3323983356256319e-01  6.3321243974853936e-01  6.3488618953210940e-01  6.3490335933065667e-01  6.3494748492373376e-01  6.3501077408229556e-01  6.3508155466245442e-01  6.3515008031778719e-01  6.3521731958754479e-01  6.3528408070512832e-01  6.3536766082599283e-01  6.3548050444871251e-01  6.3561065210497025e-01  6.3573863734756264e-01  6.3586527787305902e-01  6.3600446072177219e-01  6.3615944243349831e-01  6.3632722164750843e-01  6.3650702358470135e-01  6.3669544187894456e-01  6.3687319821898625e-01  6.3701874111016743e-01  6.3712139589875938e-01  6.3718625912322269e-01  6.3723376569914203e-01  6.3727565823208276e-01  6.3730127313517004e-01  6.3728681359587225e-01  6.3721360013119710e-01  6.3708089734205220e-01  6.3690812015090892e-01  6.3670183354800558e-01  6.3644457048980196e-01  6.3613113021030732e-01  6.3577451762661685e-01  6.3539319756803225e-01  6.3501061686184679e-01  6.3465477004899384e-01  6.3434554261888154e-01  6.3408141218344483e-01  6.3385684417632993e-01  6.3366822996314232e-01  6.3351426189641313e-01  6.3339461282702358e-01  6.3330024508041494e-01  6.3321822426553620e-01  6.3316314843934640e-01  6.3315298653216034e-01  6.3317924313561980e-01  6.3322965423071542e-01  6.3330383990260153e-01  6.3340285720053879e-01  6.3352625865005108e-01  6.3367346605987884e-01  6.3383852786562700e-01  6.3400198635026206e-01  6.3413445582188988e-01  6.3421885882424545e-01  6.3423871511111496e-01  6.3419250714392505e-01  6.3409382312031970e-01  6.3396670845022396e-01  6.3383130085534134e-01  6.3370294873558242e-01  6.3359746240292558e-01  6.3353136456298909e-01  6.3351123379221430e-01  6.3476145386618266e-01  6.3478180419328589e-01  6.3483390910536153e-01  6.3490558932670194e-01  6.3498720805967090e-01  6.3506213358049646e-01  6.3512445947098850e-01  6.3517753122617315e-01  6.3524003724730094e-01  6.3533128110916137e-01  6.3545004825644735e-01  6.3557414199903817e-01  6.3570222906165375e-01  6.3584227775047619e-01  6.3600337388081418e-01  6.3618200468599595e-01  6.3636982759469474e-01  6.3655753707338569e-01  6.3673134956853361e-01  6.3687152396781943e-01  6.3696194524465133e-01  6.3701472429525707e-01  6.3704988403374241e-01  6.3707777831206280e-01  6.3708821779371161e-01  6.3706343466579640e-01  6.3698758626775565e-01  6.3686332347084718e-01  6.3670470222482178e-01  6.3650716588545553e-01  6.3625608935074640e-01  6.3595195142608529e-01  6.3560954501348155e-01  6.3524559218808163e-01  6.3487966594170553e-01  6.3453129197836722e-01  6.3421935580825084e-01  6.3394302198812358e-01  6.3369622297298933e-01  6.3348249601048612e-01  6.3331149885706650e-01  6.3318328762854026e-01  6.3308759636364365e-01  6.3301488279060814e-01  6.3297424811409131e-01  6.3297665722359220e-01  6.3302351714061766e-01  6.3310624419049988e-01  6.3321532805892722e-01  6.3335114290427663e-01  6.3350824828309826e-01  6.3367851760466565e-01  6.3386114495761559e-01  6.3404847439226264e-01  6.3420938060973220e-01  6.3432258637511385e-01  6.3437437680253028e-01  6.3436018678416795e-01  6.3429461284588984e-01  6.3419714913224901e-01  6.3408621205840232e-01  6.3397677579945688e-01  6.3388696185309357e-01  6.3383357132363682e-01  6.3381695773282476e-01  6.3459789184522697e-01  6.3462077055790345e-01  6.3468063962377996e-01  6.3476237860710139e-01  6.3485714607907973e-01  6.3494005343162707e-01  6.3499950881454359e-01  6.3504734018268338e-01  6.3509279485677794e-01  6.3515909196849296e-01  6.3526336127688199e-01  6.3538798092782545e-01  6.3552496685429249e-01  6.3566970834558600e-01  6.3583441894490211e-01  6.3601984729884931e-01  6.3621101506388167e-01  6.3639143248810104e-01  6.3655703380403328e-01  6.3669087015401382e-01  6.3677650268371777e-01  6.3682266953354194e-01  6.3685094630415406e-01  6.3686855613165316e-01  6.3686401158096106e-01  6.3682457045887109e-01  6.3674800327403236e-01  6.3663918654962659e-01  6.3649295435724340e-01  6.3629955942892413e-01  6.3605144721960905e-01  6.3575584367088378e-01  6.3542711633011273e-01  6.3507668924525451e-01  6.3472444760998670e-01  6.3438275492566054e-01  6.3406469924514630e-01  6.3377646357345108e-01  6.3351412409659225e-01  6.3328301297741840e-01  6.3309554912961175e-01  6.3295388043826328e-01  6.3284707039882304e-01  6.3277567835599380e-01  6.3274586947979683e-01  6.3276313863992029e-01  6.3283315527368844e-01  6.3294847536042453e-01  6.3309549672469789e-01  6.3326976510198152e-01  6.3345956904206469e-01  6.3365297012471089e-01  6.3385840980346675e-01  6.3406950345937640e-01  6.3425648129719314e-01  6.3439494839275412e-01  6.3447568489026096e-01  6.3449934294778165e-01  6.3447120113536037e-01  6.3440600095469790e-01  6.3432801679317419e-01  6.3424971059304869e-01  6.3418130596554945e-01  6.3414059754702867e-01  6.3412712723737363e-01  6.3437151776254819e-01  6.3439882249847646e-01  6.3447045463396279e-01  6.3456390919398975e-01  6.3466679449366048e-01  6.3475880011992547e-01  6.3482511781497664e-01  6.3487309459386954e-01  6.3491177443513003e-01  6.3496326499103461e-01  6.3505341224480039e-01  6.3517617629628875e-01  6.3532068243619944e-01  6.3547644413603877e-01  6.3564541731564239e-01  6.3583255493558144e-01  6.3602263164261597e-01  6.3619392933046071e-01  6.3634683057684416e-01  6.3647463955045824e-01  6.3656056201155076e-01  6.3660505984184135e-01  6.3662591167520421e-01  6.3662987275729710e-01  6.3661239776218770e-01  6.3656741272655282e-01  6.3649487646066094e-01  6.3639451594899044e-01  6.3625770092812406e-01  6.3606904402285025e-01  6.3582791030682695e-01  6.3554280473329161e-01  6.3522661907450217e-01  6.3488896685585727e-01  6.3454432489951140e-01  6.3420699540898262e-01  6.3388273272723605e-01  6.3357896001226399e-01  6.3330326168023399e-01  6.3306290270149879e-01  6.3286228307585968e-01  6.3270109001876762e-01  6.3257814571333792e-01  6.3250373554226869e-01  6.3248349394467440e-01  6.3252095312932977e-01  6.3261848219413119e-01  6.3276707808163835e-01  6.3295504598834096e-01  6.3316859875627529e-01  6.3338837679793358e-01  6.3360874166346148e-01  6.3383789523711276e-01  6.3406731499732905e-01  6.3427249875517033e-01  6.3443186277314600e-01  6.3454094294553864e-01  6.3460129175658386e-01  6.3461209159656251e-01  6.3458692397387140e-01  6.3454771732148219e-01  6.3450530286100604e-01  6.3446673259382713e-01  6.3444259363566546e-01  6.3443427039955658e-01  6.3406227646628133e-01  6.3409464085383882e-01  6.3417750257289041e-01  6.3428514973881134e-01  6.3440281947133725e-01  6.3450934135636228e-01  6.3458941968898819e-01  6.3464892198377576e-01  6.3469413550875720e-01  6.3474179719690804e-01  6.3482319462503656e-01  6.3494499814284167e-01  6.3509411042737740e-01  6.3525834820606553e-01  6.3543387786310879e-01  6.3561959838257587e-01  6.3580329600613639e-01  6.3596602242347045e-01  6.3610801737124589e-01  6.3622626867241783e-01  6.3630565013473284e-01  6.3634416527107951e-01  6.3635552065319267e-01  6.3634937008564196e-01  6.3633020137731089e-01  6.3629262879647430e-01  6.3622629029969291e-01  6.3612888359710162e-01  6.3599719712435732e-01  6.3581821922770865e-01  6.3558830993931514e-01  6.3531296979766372e-01  6.3500328704747211e-01  6.3467093033402666e-01  6.3432702775901972e-01  6.3398497636541451e-01  6.3364986822239266e-01  6.3333367048937439e-01  6.3304978424901259e-01  6.3280405812594109e-01  6.3259321063494811e-01  6.3241398136617333e-01  6.3227746070152646e-01  6.3220559238348606e-01  6.3220078655266765e-01  6.3226102547306595e-01  6.3238884218492819e-01  6.3257389915121764e-01  6.3280050596572301e-01  6.3304972686016137e-01  6.3329964415536721e-01  6.3354844064432259e-01  6.3380021698926448e-01  6.3404231242287257e-01  6.3425740533591879e-01  6.3443563619032739e-01  6.3457476477583319e-01  6.3467124847675427e-01  6.3472342412364202e-01  6.3474080423929924e-01  6.3473843628608906e-01  6.3472544273545828e-01  6.3471276705207569e-01  6.3470580321441827e-01  6.3470330720476154e-01  6.3366317164124553e-01  6.3369819035721064e-01  6.3379177756171712e-01  6.3391966122768717e-01  6.3405900918276048e-01  6.3418728731837537e-01  6.3429474236241701e-01  6.3437983079598192e-01  6.3444222449778254e-01  6.3449852187132760e-01  6.3458341259503770e-01  6.3470784044446593e-01  6.3485840796459425e-01  6.3502400283829907e-01  6.3520195116234879e-01  6.3538447801077436e-01  6.3555870714104690e-01  6.3571367454569505e-01  6.3584730383927857e-01  6.3595189836784294e-01  6.3601884626887295e-01  6.3604820281978425e-01  6.3604985393144986e-01  6.3603914044486798e-01  6.3602709326937557e-01  6.3600296968460690e-01  6.3594749897299452e-01  6.3585425198838685e-01  6.3572540737546568e-01  6.3555426906095702e-01  6.3533228554302001e-01  6.3505749331952344e-01  6.3474171813155700e-01  6.3440240114080892e-01  6.3405098149570283e-01  6.3369396448435367e-01  6.3334671817136257e-01  6.3302232347047604e-01  6.3273350502930858e-01  6.3248325643874048e-01  6.3226759375615194e-01  6.3208468926481831e-01  6.3194841911763477e-01  6.3188750171056540e-01  6.3190682128639630e-01  6.3199954849584628e-01  6.3216131315102331e-01  6.3238215989208912e-01  6.3263892794835785e-01  6.3291624473602293e